40152769
  -OEChem-09292322142D

 50 52  0     1  0  0  0  0  0999 V2000
    9.8106   -2.6092    0.0000 O   0  0  0  0  0  0  0  0  0  0  0  0
    6.3301    0.4254    0.0000 N   0  0  3  0  0  0  0  0  0  0  0  0
    7.1962   -0.0746    0.0000 C   0  0  2  0  0  0  0  0  0  0  0  0
    7.1962   -1.0746    0.0000 C   0  0  0  0  0  0  0  0  0  0  0  0
    8.0622    0.4254    0.0000 C   0  0  0  0  0  0  0  0  0  0  0  0
    8.0622   -1.5746    0.0000 C   0  0  0  0  0  0  0  0  0  0  0  0
    8.9282   -0.0746    0.0000 C   0  0  0  0  0  0  0  0  0  0  0  0
    8.9282   -1.0746    0.0000 C   0  0  0  0  0  0  0  0  0  0  0  0
    5.4641   -0.0746    0.0000 C   0  0  0  0  0  0  0  0  0  0  0  0
    6.3301    1.4254    0.0000 C   0  0  0  0  0  0  0  0  0  0  0  0
    4.5981    0.4254    0.0000 C   0  0  0  0  0  0  0  0  0  0  0  0
    5.4641    1.9254    0.0000 C   0  0  0  0  0  0  0  0  0  0  0  0
    9.8222    0.4601    0.0000 C   0  0  0  0  0  0  0  0  0  0  0  0
    9.8222   -1.6093    0.0000 C   0  0  0  0  0  0  0  0  0  0  0  0
   10.7282   -0.0538    0.0000 C   0  0  0  0  0  0  0  0  0  0  0  0
   10.7282   -1.0954    0.0000 C   0  0  0  0  0  0  0  0  0  0  0  0
    3.7320   -0.0746    0.0000 C   0  0  0  0  0  0  0  0  0  0  0  0
    5.4641    2.9254    0.0000 C   0  0  0  0  0  0  0  0  0  0  0  0
    3.7320   -1.0746    0.0000 C   0  0  0  0  0  0  0  0  0  0  0  0
    2.8660    0.4254    0.0000 C   0  0  0  0  0  0  0  0  0  0  0  0
    2.8660   -1.5746    0.0000 C   0  0  0  0  0  0  0  0  0  0  0  0
    2.0000   -0.0746    0.0000 C   0  0  0  0  0  0  0  0  0  0  0  0
    2.0000   -1.0746    0.0000 C   0  0  0  0  0  0  0  0  0  0  0  0
    6.6592   -0.3846    0.0000 H   0  0  0  0  0  0  0  0  0  0  0  0
    6.5856   -0.9669    0.0000 H   0  0  0  0  0  0  0  0  0  0  0  0
    6.9841   -1.6572    0.0000 H   0  0  0  0  0  0  0  0  0  0  0  0
    8.4607    0.9003    0.0000 H   0  0  0  0  0  0  0  0  0  0  0  0
    7.6636    0.9003    0.0000 H   0  0  0  0  0  0  0  0  0  0  0  0
    7.6636   -2.0496    0.0000 H   0  0  0  0  0  0  0  0  0  0  0  0
    8.4607   -2.0496    0.0000 H   0  0  0  0  0  0  0  0  0  0  0  0
    5.0656   -0.5496    0.0000 H   0  0  0  0  0  0  0  0  0  0  0  0
    5.8626   -0.5496    0.0000 H   0  0  0  0  0  0  0  0  0  0  0  0
    6.9407    1.3177    0.0000 H   0  0  0  0  0  0  0  0  0  0  0  0
    6.5422    2.0080    0.0000 H   0  0  0  0  0  0  0  0  0  0  0  0
    4.9966    0.9003    0.0000 H   0  0  0  0  0  0  0  0  0  0  0  0
    4.1996    0.9003    0.0000 H   0  0  0  0  0  0  0  0  0  0  0  0
    4.8535    2.0330    0.0000 H   0  0  0  0  0  0  0  0  0  0  0  0
    5.2520    1.3428    0.0000 H   0  0  0  0  0  0  0  0  0  0  0  0
    9.8150    1.0800    0.0000 H   0  0  0  0  0  0  0  0  0  0  0  0
   11.2639    0.2583    0.0000 H   0  0  0  0  0  0  0  0  0  0  0  0
   11.2639   -1.4075    0.0000 H   0  0  0  0  0  0  0  0  0  0  0  0
    6.0841    2.9254    0.0000 H   0  0  0  0  0  0  0  0  0  0  0  0
    5.4641    3.5454    0.0000 H   0  0  0  0  0  0  0  0  0  0  0  0
    4.8441    2.9254    0.0000 H   0  0  0  0  0  0  0  0  0  0  0  0
   10.3439   -2.9254    0.0000 H   0  0  0  0  0  0  0  0  0  0  0  0
    4.2690   -1.3846    0.0000 H   0  0  0  0  0  0  0  0  0  0  0  0
    2.8660    1.0454    0.0000 H   0  0  0  0  0  0  0  0  0  0  0  0
    2.8660   -2.1946    0.0000 H   0  0  0  0  0  0  0  0  0  0  0  0
    1.4631    0.2354    0.0000 H   0  0  0  0  0  0  0  0  0  0  0  0
    1.4631   -1.3846    0.0000 H   0  0  0  0  0  0  0  0  0  0  0  0
  1 14  1  0  0  0  0
  1 45  1  0  0  0  0
  3  2  1  1  0  0  0
  2  9  1  0  0  0  0
  2 10  1  0  0  0  0
  3  4  1  0  0  0  0
  3  5  1  0  0  0  0
  3 24  1  0  0  0  0
  4  6  1  0  0  0  0
  4 25  1  0  0  0  0
  4 26  1  0  0  0  0
  5  7  1  0  0  0  0
  5 27  1  0  0  0  0
  5 28  1  0  0  0  0
  6  8  1  0  0  0  0
  6 29  1  0  0  0  0
  6 30  1  0  0  0  0
  7  8  2  0  0  0  0
  7 13  1  0  0  0  0
  8 14  1  0  0  0  0
  9 11  1  0  0  0  0
  9 31  1  0  0  0  0
  9 32  1  0  0  0  0
 10 12  1  0  0  0  0
 10 33  1  0  0  0  0
 10 34  1  0  0  0  0
 11 17  1  0  0  0  0
 11 35  1  0  0  0  0
 11 36  1  0  0  0  0
 12 18  1  0  0  0  0
 12 37  1  0  0  0  0
 12 38  1  0  0  0  0
 13 15  2  0  0  0  0
 13 39  1  0  0  0  0
 14 16  2  0  0  0  0
 15 16  1  0  0  0  0
 15 40  1  0  0  0  0
 16 41  1  0  0  0  0
 17 19  2  0  0  0  0
 17 20  1  0  0  0  0
 18 42  1  0  0  0  0
 18 43  1  0  0  0  0
 18 44  1  0  0  0  0
 19 21  1  0  0  0  0
 19 46  1  0  0  0  0
 20 22  2  0  0  0  0
 20 47  1  0  0  0  0
 21 23  2  0  0  0  0
 21 48  1  0  0  0  0
 22 23  1  0  0  0  0
 22 49  1  0  0  0  0
 23 50  1  0  0  0  0
M  END
> <PUBCHEM_COMPOUND_CID>
40152769

> <PUBCHEM_COMPOUND_CANONICALIZED>
1

> <PUBCHEM_CACTVS_COMPLEXITY>
339

> <PUBCHEM_CACTVS_HBOND_ACCEPTOR>
2

> <PUBCHEM_CACTVS_HBOND_DONOR>
1

> <PUBCHEM_CACTVS_ROTATABLE_BOND>
6

> <PUBCHEM_CACTVS_SUBSKEYS>
AAADceB6IAAAAAAAAAAAAAAAAAAAAAAAAAAwYMAAAAAAAADBQAAAHgAACAAADCzBmAQyBoMAAgCAAiBCAAACAAAgIAAIiAAOCIgIJiKCkROEcAAkwBGImAeQ0LMOgAABAAAYAAAQAAKAADAAAAAAAAAAAA==

> <PUBCHEM_IUPAC_OPENEYE_NAME>
(2R)-2-[2-phenylethyl(propyl)amino]tetralin-5-ol

> <PUBCHEM_IUPAC_CAS_NAME>
(6R)-6-[2-phenylethyl(propyl)amino]-5,6,7,8-tetrahydronaphthalen-1-ol

> <PUBCHEM_IUPAC_NAME_MARKUP>
(6<I>R</I>)-6-[2-phenylethyl(propyl)amino]-5,6,7,8-tetrahydronaphthalen-1-ol

> <PUBCHEM_IUPAC_NAME>
(6R)-6-[2-phenylethyl(propyl)amino]-5,6,7,8-tetrahydronaphthalen-1-ol

> <PUBCHEM_IUPAC_SYSTEMATIC_NAME>
(6R)-6-[2-phenylethyl(propyl)amino]-5,6,7,8-tetrahydronaphthalen-1-ol

> <PUBCHEM_IUPAC_TRADITIONAL_NAME>
(2R)-2-[phenethyl(propyl)amino]tetralin-5-ol

> <PUBCHEM_IUPAC_INCHI>
InChI=1S/C21H27NO/c1-2-14-22(15-13-17-7-4-3-5-8-17)19-11-12-20-18(16-19)9-6-10-21(20)23/h3-10,19,23H,2,11-16H2,1H3/t19-/m1/s1

> <PUBCHEM_IUPAC_INCHIKEY>
DEYFWGXTPWNADC-LJQANCHMSA-N

> <PUBCHEM_XLOGP3_AA>
5.2

> <PUBCHEM_EXACT_MASS>
309.209264485

> <PUBCHEM_MOLECULAR_FORMULA>
C21H27NO

> <PUBCHEM_MOLECULAR_WEIGHT>
309.4

> <PUBCHEM_OPENEYE_CAN_SMILES>
CCCN(CCC1=CC=CC=C1)C2CCC3=C(C2)C=CC=C3O

> <PUBCHEM_OPENEYE_ISO_SMILES>
CCCN(CCC1=CC=CC=C1)[C@@H]2CCC3=C(C2)C=CC=C3O

> <PUBCHEM_CACTVS_TPSA>
23.5

> <PUBCHEM_MONOISOTOPIC_WEIGHT>
309.209264485

> <PUBCHEM_TOTAL_CHARGE>
0

> <PUBCHEM_HEAVY_ATOM_COUNT>
23

> <PUBCHEM_ATOM_DEF_STEREO_COUNT>
1

> <PUBCHEM_ATOM_UDEF_STEREO_COUNT>
0

> <PUBCHEM_BOND_DEF_STEREO_COUNT>
0

> <PUBCHEM_BOND_UDEF_STEREO_COUNT>
0

> <PUBCHEM_ISOTOPIC_ATOM_COUNT>
0

> <PUBCHEM_COMPONENT_COUNT>
1

> <PUBCHEM_CACTVS_TAUTO_COUNT>
-1

> <PUBCHEM_COORDINATE_TYPE>
1
5
255

> <PUBCHEM_BONDANNOTATIONS>
13  15  8
14  16  8
15  16  8
17  19  8
17  20  8
19  21  8
3  2  5
20  22  8
21  23  8
22  23  8
7  13  8
7  8  8
8  14  8

$$$$
