14198587
  -OEChem-09292322142D

 38 40  0     1  0  0  0  0  0999 V2000
    2.5381    2.5068    0.0000 Cl  0  0  0  0  0  0  0  0  0  0  0  0
    2.5381    0.4585    0.0000 O   0  0  0  0  0  0  0  0  0  0  0  0
    6.9343    0.9827    0.0000 N   0  0  3  0  0  0  0  0  0  0  0  0
    6.0682    0.4827    0.0000 C   0  0  2  0  0  0  0  0  0  0  0  0
    5.2022    0.9827    0.0000 C   0  0  0  0  0  0  0  0  0  0  0  0
    6.9343    1.9827    0.0000 C   0  0  0  0  0  0  0  0  0  0  0  0
    6.0682    2.4827    0.0000 C   0  0  0  0  0  0  0  0  0  0  0  0
    5.2022    1.9827    0.0000 C   0  0  0  0  0  0  0  0  0  0  0  0
    6.0682   -0.5173    0.0000 C   0  0  0  0  0  0  0  0  0  0  0  0
    7.8003    0.4827    0.0000 C   0  0  0  0  0  0  0  0  0  0  0  0
    4.3083    0.4480    0.0000 C   0  0  0  0  0  0  0  0  0  0  0  0
    6.9343   -1.0173    0.0000 C   0  0  0  0  0  0  0  0  0  0  0  0
    4.3083    2.5173    0.0000 C   0  0  0  0  0  0  0  0  0  0  0  0
    3.4022    0.9619    0.0000 C   0  0  0  0  0  0  0  0  0  0  0  0
    3.4022    2.0035    0.0000 C   0  0  0  0  0  0  0  0  0  0  0  0
    6.9343   -2.0173    0.0000 C   0  0  0  0  0  0  0  0  0  0  0  0
    7.8003   -0.5173    0.0000 C   0  0  0  0  0  0  0  0  0  0  0  0
    7.8003   -2.5173    0.0000 C   0  0  0  0  0  0  0  0  0  0  0  0
    8.6663   -1.0173    0.0000 C   0  0  0  0  0  0  0  0  0  0  0  0
    8.6663   -2.0173    0.0000 C   0  0  0  0  0  0  0  0  0  0  0  0
    6.6052    0.1727    0.0000 H   0  0  0  0  0  0  0  0  0  0  0  0
    7.5449    1.8750    0.0000 H   0  0  0  0  0  0  0  0  0  0  0  0
    7.1463    2.5653    0.0000 H   0  0  0  0  0  0  0  0  0  0  0  0
    6.4668    2.9576    0.0000 H   0  0  0  0  0  0  0  0  0  0  0  0
    5.6697    2.9576    0.0000 H   0  0  0  0  0  0  0  0  0  0  0  0
    5.4577   -0.4097    0.0000 H   0  0  0  0  0  0  0  0  0  0  0  0
    5.8562   -1.0999    0.0000 H   0  0  0  0  0  0  0  0  0  0  0  0
    7.4903   -0.0543    0.0000 H   0  0  0  0  0  0  0  0  0  0  0  0
    8.3372    0.1727    0.0000 H   0  0  0  0  0  0  0  0  0  0  0  0
    8.1103    1.0196    0.0000 H   0  0  0  0  0  0  0  0  0  0  0  0
    4.3154   -0.1720    0.0000 H   0  0  0  0  0  0  0  0  0  0  0  0
    4.3154    3.1373    0.0000 H   0  0  0  0  0  0  0  0  0  0  0  0
    6.3973   -2.3273    0.0000 H   0  0  0  0  0  0  0  0  0  0  0  0
    7.8003    0.1027    0.0000 H   0  0  0  0  0  0  0  0  0  0  0  0
    7.8003   -3.1373    0.0000 H   0  0  0  0  0  0  0  0  0  0  0  0
    9.2033   -0.7073    0.0000 H   0  0  0  0  0  0  0  0  0  0  0  0
    9.2033   -2.3273    0.0000 H   0  0  0  0  0  0  0  0  0  0  0  0
    2.0000    0.7664    0.0000 H   0  0  0  0  0  0  0  0  0  0  0  0
  1 15  1  0  0  0  0
  2 14  1  0  0  0  0
  2 38  1  0  0  0  0
  3  4  1  0  0  0  0
  3  6  1  0  0  0  0
  3 10  1  0  0  0  0
  4  5  1  0  0  0  0
  4  9  1  1  0  0  0
  4 21  1  0  0  0  0
  5  8  1  0  0  0  0
  5 11  2  0  0  0  0
  6  7  1  0  0  0  0
  6 22  1  0  0  0  0
  6 23  1  0  0  0  0
  7  8  1  0  0  0  0
  7 24  1  0  0  0  0
  7 25  1  0  0  0  0
  8 13  2  0  0  0  0
  9 12  1  0  0  0  0
  9 26  1  0  0  0  0
  9 27  1  0  0  0  0
 10 28  1  0  0  0  0
 10 29  1  0  0  0  0
 10 30  1  0  0  0  0
 11 14  1  0  0  0  0
 11 31  1  0  0  0  0
 12 16  2  0  0  0  0
 12 17  1  0  0  0  0
 13 15  1  0  0  0  0
 13 32  1  0  0  0  0
 14 15  2  0  0  0  0
 16 18  1  0  0  0  0
 16 33  1  0  0  0  0
 17 19  2  0  0  0  0
 17 34  1  0  0  0  0
 18 20  2  0  0  0  0
 18 35  1  0  0  0  0
 19 20  1  0  0  0  0
 19 36  1  0  0  0  0
 20 37  1  0  0  0  0
M  END
> <PUBCHEM_COMPOUND_CID>
14198587

> <PUBCHEM_COMPOUND_CANONICALIZED>
1

> <PUBCHEM_CACTVS_COMPLEXITY>
318

> <PUBCHEM_CACTVS_HBOND_ACCEPTOR>
2

> <PUBCHEM_CACTVS_HBOND_DONOR>
1

> <PUBCHEM_CACTVS_ROTATABLE_BOND>
2

> <PUBCHEM_CACTVS_SUBSKEYS>
AAADceB6IAAEAAAAAAAAAAAAAAAAAAAAAAA8YIAAAAAAAACxQAAAHgIACAAADC7BmCQyBoMAAgCAAiBCAACCAAAgJUAIiAAOD4gIJiKDkxOEcAhkwBGImAewwPAOpAABIAAQCABIAAJAACAQAAAAAAAAAA==

> <PUBCHEM_IUPAC_OPENEYE_NAME>
(1S)-1-benzyl-6-chloro-2-methyl-3,4-dihydro-1H-isoquinolin-7-ol

> <PUBCHEM_IUPAC_CAS_NAME>
(1S)-6-chloro-2-methyl-1-(phenylmethyl)-3,4-dihydro-1H-isoquinolin-7-ol

> <PUBCHEM_IUPAC_NAME_MARKUP>
(1<I>S</I>)-1-benzyl-6-chloro-2-methyl-3,4-dihydro-1<I>H</I>-isoquinolin-7-ol

> <PUBCHEM_IUPAC_NAME>
(1S)-1-benzyl-6-chloro-2-methyl-3,4-dihydro-1H-isoquinolin-7-ol

> <PUBCHEM_IUPAC_SYSTEMATIC_NAME>
(1S)-6-chloranyl-2-methyl-1-(phenylmethyl)-3,4-dihydro-1H-isoquinolin-7-ol

> <PUBCHEM_IUPAC_TRADITIONAL_NAME>
(1S)-1-benzyl-6-chloro-2-methyl-3,4-dihydro-1H-isoquinolin-7-ol

> <PUBCHEM_IUPAC_INCHI>
InChI=1S/C17H18ClNO/c1-19-8-7-13-10-15(18)17(20)11-14(13)16(19)9-12-5-3-2-4-6-12/h2-6,10-11,16,20H,7-9H2,1H3/t16-/m0/s1

> <PUBCHEM_IUPAC_INCHIKEY>
JHDHNKDQVCVUJN-INIZCTEOSA-N

> <PUBCHEM_XLOGP3_AA>
4.1

> <PUBCHEM_EXACT_MASS>
287.1076919

> <PUBCHEM_MOLECULAR_FORMULA>
C17H18ClNO

> <PUBCHEM_MOLECULAR_WEIGHT>
287.8

> <PUBCHEM_OPENEYE_CAN_SMILES>
CN1CCC2=CC(=C(C=C2C1CC3=CC=CC=C3)O)Cl

> <PUBCHEM_OPENEYE_ISO_SMILES>
CN1CCC2=CC(=C(C=C2[C@@H]1CC3=CC=CC=C3)O)Cl

> <PUBCHEM_CACTVS_TPSA>
23.5

> <PUBCHEM_MONOISOTOPIC_WEIGHT>
287.1076919

> <PUBCHEM_TOTAL_CHARGE>
0

> <PUBCHEM_HEAVY_ATOM_COUNT>
20

> <PUBCHEM_ATOM_DEF_STEREO_COUNT>
1

> <PUBCHEM_ATOM_UDEF_STEREO_COUNT>
0

> <PUBCHEM_BOND_DEF_STEREO_COUNT>
0

> <PUBCHEM_BOND_UDEF_STEREO_COUNT>
0

> <PUBCHEM_ISOTOPIC_ATOM_COUNT>
0

> <PUBCHEM_COMPONENT_COUNT>
1

> <PUBCHEM_CACTVS_TAUTO_COUNT>
-1

> <PUBCHEM_COORDINATE_TYPE>
1
5
255

> <PUBCHEM_BONDANNOTATIONS>
11  14  8
12  16  8
12  17  8
13  15  8
14  15  8
16  18  8
17  19  8
18  20  8
19  20  8
4  9  5
5  11  8
5  8  8
8  13  8

$$$$
