44407363
  -OEChem-09292322272D

 73 76  0     0  0  0  0  0  0999 V2000
    6.4051   -4.4168    0.0000 F   0  0  0  0  0  0  0  0  0  0  0  0
    7.0659   -5.6671    0.0000 F   0  0  0  0  0  0  0  0  0  0  0  0
    5.8156   -6.3279    0.0000 F   0  0  0  0  0  0  0  0  0  0  0  0
    2.5092    2.8427    0.0000 O   0  0  0  0  0  0  0  0  0  0  0  0
    5.7718    6.5601    0.0000 O   0  0  0  0  0  0  0  0  0  0  0  0
    3.3091   -0.8831    0.0000 N   0  0  0  0  0  0  0  0  0  0  0  0
    3.7541   -2.8330    0.0000 N   0  0  0  0  0  0  0  0  0  0  0  0
    4.1076    3.4020    0.0000 N   0  0  0  0  0  0  0  0  0  0  0  0
    3.2436   -4.4881    0.0000 N   0  0  0  0  0  0  0  0  0  0  0  0
    4.4217   -5.7578    0.0000 N   0  0  0  0  0  0  0  0  0  0  0  0
    4.2646   -1.1779    0.0000 C   0  0  0  0  0  0  0  0  0  0  0  0
    2.5760   -1.5633    0.0000 C   0  0  0  0  0  0  0  0  0  0  0  0
    3.0866    0.0918    0.0000 C   0  0  0  0  0  0  0  0  0  0  0  0
    4.4872   -2.1528    0.0000 C   0  0  0  0  0  0  0  0  0  0  0  0
    2.7985   -2.5382    0.0000 C   0  0  0  0  0  0  0  0  0  0  0  0
    3.8196    0.7720    0.0000 C   0  0  0  0  0  0  0  0  0  0  0  0
    3.5971    1.7469    0.0000 C   0  0  0  0  0  0  0  0  0  0  0  0
    4.3301    2.4271    0.0000 C   0  0  0  0  0  0  0  0  0  0  0  0
    3.9766   -3.8079    0.0000 C   0  0  0  0  0  0  0  0  0  0  0  0
    4.8894    4.0255    0.0000 C   0  0  0  0  0  0  0  0  0  0  0  0
    2.7330   -6.1432    0.0000 C   0  0  0  0  0  0  0  0  0  0  0  0
    4.1076    5.6490    0.0000 C   0  0  0  0  0  0  0  0  0  0  0  0
    4.8894    5.0255    0.0000 C   0  0  0  0  0  0  0  0  0  0  0  0
    3.1327    5.4264    0.0000 C   0  0  0  0  0  0  0  0  0  0  0  0
    2.6988    4.5255    0.0000 C   0  0  0  0  0  0  0  0  0  0  0  0
    3.1327    3.6245    0.0000 C   0  0  0  0  0  0  0  0  0  0  0  0
    3.4661   -5.4630    0.0000 C   0  0  0  0  0  0  0  0  0  0  0  0
    4.9322   -4.1027    0.0000 C   0  0  0  0  0  0  0  0  0  0  0  0
    5.1547   -5.0776    0.0000 C   0  0  0  0  0  0  0  0  0  0  0  0
    5.7834    3.4908    0.0000 C   0  0  0  0  0  0  0  0  0  0  0  0
    5.7834    5.5601    0.0000 C   0  0  0  0  0  0  0  0  0  0  0  0
    2.0000   -6.8234    0.0000 C   0  0  0  0  0  0  0  0  0  0  0  0
    3.4132   -6.8763    0.0000 C   0  0  0  0  0  0  0  0  0  0  0  0
    2.0529   -5.4102    0.0000 C   0  0  0  0  0  0  0  0  0  0  0  0
    6.6894    4.0047    0.0000 C   0  0  0  0  0  0  0  0  0  0  0  0
    6.6894    5.0463    0.0000 C   0  0  0  0  0  0  0  0  0  0  0  0
    6.1103   -5.3724    0.0000 C   0  0  0  0  0  0  0  0  0  0  0  0
    4.8839   -1.1470    0.0000 H   0  0  0  0  0  0  0  0  0  0  0  0
    4.3417   -0.5627    0.0000 H   0  0  0  0  0  0  0  0  0  0  0  0
    2.2396   -1.0425    0.0000 H   0  0  0  0  0  0  0  0  0  0  0  0
    2.0047   -1.8042    0.0000 H   0  0  0  0  0  0  0  0  0  0  0  0
    2.7502    0.6126    0.0000 H   0  0  0  0  0  0  0  0  0  0  0  0
    2.5152   -0.1490    0.0000 H   0  0  0  0  0  0  0  0  0  0  0  0
    4.8235   -2.6736    0.0000 H   0  0  0  0  0  0  0  0  0  0  0  0
    5.0585   -1.9120    0.0000 H   0  0  0  0  0  0  0  0  0  0  0  0
    2.1793   -2.5692    0.0000 H   0  0  0  0  0  0  0  0  0  0  0  0
    2.7214   -3.1534    0.0000 H   0  0  0  0  0  0  0  0  0  0  0  0
    4.1560    0.2511    0.0000 H   0  0  0  0  0  0  0  0  0  0  0  0
    4.3909    1.0128    0.0000 H   0  0  0  0  0  0  0  0  0  0  0  0
    3.2607    2.2677    0.0000 H   0  0  0  0  0  0  0  0  0  0  0  0
    3.0258    1.5061    0.0000 H   0  0  0  0  0  0  0  0  0  0  0  0
    4.6665    1.9062    0.0000 H   0  0  0  0  0  0  0  0  0  0  0  0
    4.9014    2.6679    0.0000 H   0  0  0  0  0  0  0  0  0  0  0  0
    4.5924    6.0355    0.0000 H   0  0  0  0  0  0  0  0  0  0  0  0
    3.8386    6.2076    0.0000 H   0  0  0  0  0  0  0  0  0  0  0  0
    3.1327    6.0464    0.0000 H   0  0  0  0  0  0  0  0  0  0  0  0
    2.5282    5.5644    0.0000 H   0  0  0  0  0  0  0  0  0  0  0  0
    2.2141    4.9120    0.0000 H   0  0  0  0  0  0  0  0  0  0  0  0
    2.2141    4.1389    0.0000 H   0  0  0  0  0  0  0  0  0  0  0  0
    5.3867   -3.6810    0.0000 H   0  0  0  0  0  0  0  0  0  0  0  0
    5.7762    2.8708    0.0000 H   0  0  0  0  0  0  0  0  0  0  0  0
    1.5783   -6.3689    0.0000 H   0  0  0  0  0  0  0  0  0  0  0  0
    1.5455   -7.2451    0.0000 H   0  0  0  0  0  0  0  0  0  0  0  0
    2.4217   -7.2779    0.0000 H   0  0  0  0  0  0  0  0  0  0  0  0
    2.9587   -7.2980    0.0000 H   0  0  0  0  0  0  0  0  0  0  0  0
    3.8349   -7.3308    0.0000 H   0  0  0  0  0  0  0  0  0  0  0  0
    3.8677   -6.4546    0.0000 H   0  0  0  0  0  0  0  0  0  0  0  0
    2.5074   -4.9884    0.0000 H   0  0  0  0  0  0  0  0  0  0  0  0
    1.6312   -4.9557    0.0000 H   0  0  0  0  0  0  0  0  0  0  0  0
    1.5984   -5.8319    0.0000 H   0  0  0  0  0  0  0  0  0  0  0  0
    7.2252    3.6926    0.0000 H   0  0  0  0  0  0  0  0  0  0  0  0
    7.2252    5.3584    0.0000 H   0  0  0  0  0  0  0  0  0  0  0  0
    6.3051    6.8763    0.0000 H   0  0  0  0  0  0  0  0  0  0  0  0
  1 37  1  0  0  0  0
  2 37  1  0  0  0  0
  3 37  1  0  0  0  0
  4 26  2  0  0  0  0
  5 31  1  0  0  0  0
  5 73  1  0  0  0  0
  6 11  1  0  0  0  0
  6 12  1  0  0  0  0
  6 13  1  0  0  0  0
  7 14  1  0  0  0  0
  7 15  1  0  0  0  0
  7 19  1  0  0  0  0
  8 18  1  0  0  0  0
  8 20  1  0  0  0  0
  8 26  1  0  0  0  0
  9 19  2  0  0  0  0
  9 27  1  0  0  0  0
 10 27  2  0  0  0  0
 10 29  1  0  0  0  0
 11 14  1  0  0  0  0
 11 38  1  0  0  0  0
 11 39  1  0  0  0  0
 12 15  1  0  0  0  0
 12 40  1  0  0  0  0
 12 41  1  0  0  0  0
 13 16  1  0  0  0  0
 13 42  1  0  0  0  0
 13 43  1  0  0  0  0
 14 44  1  0  0  0  0
 14 45  1  0  0  0  0
 15 46  1  0  0  0  0
 15 47  1  0  0  0  0
 16 17  1  0  0  0  0
 16 48  1  0  0  0  0
 16 49  1  0  0  0  0
 17 18  1  0  0  0  0
 17 50  1  0  0  0  0
 17 51  1  0  0  0  0
 18 52  1  0  0  0  0
 18 53  1  0  0  0  0
 19 28  1  0  0  0  0
 20 23  2  0  0  0  0
 20 30  1  0  0  0  0
 21 27  1  0  0  0  0
 21 32  1  0  0  0  0
 21 33  1  0  0  0  0
 21 34  1  0  0  0  0
 22 23  1  0  0  0  0
 22 24  1  0  0  0  0
 22 54  1  0  0  0  0
 22 55  1  0  0  0  0
 23 31  1  0  0  0  0
 24 25  1  0  0  0  0
 24 56  1  0  0  0  0
 24 57  1  0  0  0  0
 25 26  1  0  0  0  0
 25 58  1  0  0  0  0
 25 59  1  0  0  0  0
 28 29  2  0  0  0  0
 28 60  1  0  0  0  0
 29 37  1  0  0  0  0
 30 35  2  0  0  0  0
 30 61  1  0  0  0  0
 31 36  2  0  0  0  0
 32 62  1  0  0  0  0
 32 63  1  0  0  0  0
 32 64  1  0  0  0  0
 33 65  1  0  0  0  0
 33 66  1  0  0  0  0
 33 67  1  0  0  0  0
 34 68  1  0  0  0  0
 34 69  1  0  0  0  0
 34 70  1  0  0  0  0
 35 36  1  0  0  0  0
 35 71  1  0  0  0  0
 36 72  1  0  0  0  0
M  END
> <PUBCHEM_COMPOUND_CID>
44407363

> <PUBCHEM_COMPOUND_CANONICALIZED>
1

> <PUBCHEM_CACTVS_COMPLEXITY>
753

> <PUBCHEM_CACTVS_HBOND_ACCEPTOR>
9

> <PUBCHEM_CACTVS_HBOND_DONOR>
1

> <PUBCHEM_CACTVS_ROTATABLE_BOND>
7

> <PUBCHEM_CACTVS_SUBSKEYS>
AAADcfB7sYAAAAAAAAAAAAAAAAAAAAAAAAA8WIAABYAAAAABwAAAHwAACAAADgzBnxQz9pcIEgCoAydydACCgCkhIqAJmCE+bJiIbjLC2dOUdAhuxhvI2CeY2KOOAAAAAgAKAAAAAAAEABQAAAAAAAAAAA==

> <PUBCHEM_IUPAC_OPENEYE_NAME>
1-[4-[4-[2-tert-butyl-6-(trifluoromethyl)pyrimidin-4-yl]piperazin-1-yl]butyl]-6-hydroxy-4,5-dihydro-3H-1-benzazepin-2-one

> <PUBCHEM_IUPAC_CAS_NAME>
1-[4-[4-[2-tert-butyl-6-(trifluoromethyl)-4-pyrimidinyl]-1-piperazinyl]butyl]-6-hydroxy-4,5-dihydro-3H-1-benzazepin-2-one

> <PUBCHEM_IUPAC_NAME_MARKUP>
1-[4-[4-[2-<I>tert</I>-butyl-6-(trifluoromethyl)pyrimidin-4-yl]piperazin-1-yl]butyl]-6-hydroxy-4,5-dihydro-3<I>H</I>-1-benzazepin-2-one

> <PUBCHEM_IUPAC_NAME>
1-[4-[4-[2-tert-butyl-6-(trifluoromethyl)pyrimidin-4-yl]piperazin-1-yl]butyl]-6-hydroxy-4,5-dihydro-3H-1-benzazepin-2-one

> <PUBCHEM_IUPAC_SYSTEMATIC_NAME>
1-[4-[4-[2-tert-butyl-6-(trifluoromethyl)pyrimidin-4-yl]piperazin-1-yl]butyl]-6-oxidanyl-4,5-dihydro-3H-1-benzazepin-2-one

> <PUBCHEM_IUPAC_TRADITIONAL_NAME>
1-[4-[4-[2-tert-butyl-6-(trifluoromethyl)pyrimidin-4-yl]piperazino]butyl]-6-hydroxy-4,5-dihydro-3H-1-benzazepin-2-one

> <PUBCHEM_IUPAC_INCHI>
InChI=1S/C27H36F3N5O2/c1-26(2,3)25-31-22(27(28,29)30)18-23(32-25)34-16-14-33(15-17-34)12-4-5-13-35-20-9-7-10-21(36)19(20)8-6-11-24(35)37/h7,9-10,18,36H,4-6,8,11-17H2,1-3H3

> <PUBCHEM_IUPAC_INCHIKEY>
MONABEPWKHXIEW-UHFFFAOYSA-N

> <PUBCHEM_XLOGP3_AA>
4.8

> <PUBCHEM_EXACT_MASS>
519.28210989

> <PUBCHEM_MOLECULAR_FORMULA>
C27H36F3N5O2

> <PUBCHEM_MOLECULAR_WEIGHT>
519.6

> <PUBCHEM_OPENEYE_CAN_SMILES>
CC(C)(C)C1=NC(=CC(=N1)N2CCN(CC2)CCCCN3C(=O)CCCC4=C3C=CC=C4O)C(F)(F)F

> <PUBCHEM_OPENEYE_ISO_SMILES>
CC(C)(C)C1=NC(=CC(=N1)N2CCN(CC2)CCCCN3C(=O)CCCC4=C3C=CC=C4O)C(F)(F)F

> <PUBCHEM_CACTVS_TPSA>
72.8

> <PUBCHEM_MONOISOTOPIC_WEIGHT>
519.28210989

> <PUBCHEM_TOTAL_CHARGE>
0

> <PUBCHEM_HEAVY_ATOM_COUNT>
37

> <PUBCHEM_ATOM_DEF_STEREO_COUNT>
0

> <PUBCHEM_ATOM_UDEF_STEREO_COUNT>
0

> <PUBCHEM_BOND_DEF_STEREO_COUNT>
0

> <PUBCHEM_BOND_UDEF_STEREO_COUNT>
0

> <PUBCHEM_ISOTOPIC_ATOM_COUNT>
0

> <PUBCHEM_COMPONENT_COUNT>
1

> <PUBCHEM_CACTVS_TAUTO_COUNT>
-1

> <PUBCHEM_COORDINATE_TYPE>
1
5
255

> <PUBCHEM_BONDANNOTATIONS>
10  27  8
10  29  8
19  28  8
20  23  8
20  30  8
23  31  8
28  29  8
30  35  8
31  36  8
35  36  8
9  19  8
9  27  8

$$$$
