44325578
  -OEChem-09292322132D

 44 46  0     1  0  0  0  0  0999 V2000
    8.9200    1.1582    0.0000 S   0  0  0  0  0  0  0  0  0  0  0  0
   10.6635    2.1381    0.0000 F   0  0  0  0  0  0  0  0  0  0  0  0
   10.2817    0.7764    0.0000 F   0  0  0  0  0  0  0  0  0  0  0  0
    9.3018    2.5199    0.0000 F   0  0  0  0  0  0  0  0  0  0  0  0
    8.0483    0.6682    0.0000 O   0  0  0  0  0  0  0  0  0  0  0  0
    9.4100    0.2864    0.0000 O   0  0  0  0  0  0  0  0  0  0  0  0
    8.4301    2.0299    0.0000 O   0  0  0  0  0  0  0  0  0  0  0  0
    3.5998   -0.6334    0.0000 N   0  0  3  0  0  0  0  0  0  0  0  0
    4.5460   -0.3286    0.0000 C   0  0  3  0  0  0  0  0  0  0  0  0
    4.5460    0.6714    0.0000 C   0  0  3  0  0  0  0  0  0  0  0  0
    3.5998    0.9761    0.0000 C   0  0  0  0  0  0  0  0  0  0  0  0
    5.4121   -0.8286    0.0000 C   0  0  0  0  0  0  0  0  0  0  0  0
    3.0162    0.1714    0.0000 C   0  0  0  0  0  0  0  0  0  0  0  0
    5.4121    1.1714    0.0000 C   0  0  0  0  0  0  0  0  0  0  0  0
    6.2781   -0.3286    0.0000 C   0  0  0  0  0  0  0  0  0  0  0  0
    6.2781    0.6714    0.0000 C   0  0  0  0  0  0  0  0  0  0  0  0
    3.2892   -1.5839    0.0000 C   0  0  0  0  0  0  0  0  0  0  0  0
    5.3960    2.2129    0.0000 C   0  0  0  0  0  0  0  0  0  0  0  0
    7.1881    1.1782    0.0000 C   0  0  0  0  0  0  0  0  0  0  0  0
    2.3107   -1.7901    0.0000 C   0  0  0  0  0  0  0  0  0  0  0  0
    6.2941    2.7406    0.0000 C   0  0  0  0  0  0  0  0  0  0  0  0
    7.1961    2.2198    0.0000 C   0  0  0  0  0  0  0  0  0  0  0  0
    2.0000   -2.7406    0.0000 C   0  0  0  0  0  0  0  0  0  0  0  0
    9.7918    1.6481    0.0000 C   0  0  0  0  0  0  0  0  0  0  0  0
    4.4804   -0.9452    0.0000 H   0  0  0  0  0  0  0  0  0  0  0  0
    4.4804    1.2879    0.0000 H   0  0  0  0  0  0  0  0  0  0  0  0
    3.8509    1.5430    0.0000 H   0  0  0  0  0  0  0  0  0  0  0  0
    3.0624    1.2853    0.0000 H   0  0  0  0  0  0  0  0  0  0  0  0
    5.0136   -1.3036    0.0000 H   0  0  0  0  0  0  0  0  0  0  0  0
    5.8106   -1.3036    0.0000 H   0  0  0  0  0  0  0  0  0  0  0  0
    2.5553    0.5861    0.0000 H   0  0  0  0  0  0  0  0  0  0  0  0
    2.5553   -0.2434    0.0000 H   0  0  0  0  0  0  0  0  0  0  0  0
    6.4902   -0.9112    0.0000 H   0  0  0  0  0  0  0  0  0  0  0  0
    6.8887   -0.2210    0.0000 H   0  0  0  0  0  0  0  0  0  0  0  0
    3.3097   -2.2036    0.0000 H   0  0  0  0  0  0  0  0  0  0  0  0
    3.9030   -1.6712    0.0000 H   0  0  0  0  0  0  0  0  0  0  0  0
    4.8555    2.5166    0.0000 H   0  0  0  0  0  0  0  0  0  0  0  0
    2.2901   -1.1704    0.0000 H   0  0  0  0  0  0  0  0  0  0  0  0
    1.6968   -1.7028    0.0000 H   0  0  0  0  0  0  0  0  0  0  0  0
    6.2917    3.3606    0.0000 H   0  0  0  0  0  0  0  0  0  0  0  0
    7.7343    2.5277    0.0000 H   0  0  0  0  0  0  0  0  0  0  0  0
    1.4107   -2.5480    0.0000 H   0  0  0  0  0  0  0  0  0  0  0  0
    1.8074   -3.3300    0.0000 H   0  0  0  0  0  0  0  0  0  0  0  0
    2.5893   -2.9332    0.0000 H   0  0  0  0  0  0  0  0  0  0  0  0
  1  5  1  0  0  0  0
  1  6  2  0  0  0  0
  1  7  2  0  0  0  0
  1 24  1  0  0  0  0
  2 24  1  0  0  0  0
  3 24  1  0  0  0  0
  4 24  1  0  0  0  0
  5 19  1  0  0  0  0
  8  9  1  0  0  0  0
  8 13  1  0  0  0  0
  8 17  1  0  0  0  0
  9 10  1  0  0  0  0
  9 12  1  0  0  0  0
  9 25  1  0  0  0  0
 10 11  1  0  0  0  0
 10 14  1  0  0  0  0
 10 26  1  0  0  0  0
 11 13  1  0  0  0  0
 11 27  1  0  0  0  0
 11 28  1  0  0  0  0
 12 15  1  0  0  0  0
 12 29  1  0  0  0  0
 12 30  1  0  0  0  0
 13 31  1  0  0  0  0
 13 32  1  0  0  0  0
 14 16  2  0  0  0  0
 14 18  1  0  0  0  0
 15 16  1  0  0  0  0
 15 33  1  0  0  0  0
 15 34  1  0  0  0  0
 16 19  1  0  0  0  0
 17 20  1  0  0  0  0
 17 35  1  0  0  0  0
 17 36  1  0  0  0  0
 18 21  2  0  0  0  0
 18 37  1  0  0  0  0
 19 22  2  0  0  0  0
 20 23  1  0  0  0  0
 20 38  1  0  0  0  0
 20 39  1  0  0  0  0
 21 22  1  0  0  0  0
 21 40  1  0  0  0  0
 22 41  1  0  0  0  0
 23 42  1  0  0  0  0
 23 43  1  0  0  0  0
 23 44  1  0  0  0  0
M  END
> <PUBCHEM_COMPOUND_CID>
44325578

> <PUBCHEM_COMPOUND_CANONICALIZED>
1

> <PUBCHEM_CACTVS_COMPLEXITY>
546

> <PUBCHEM_CACTVS_HBOND_ACCEPTOR>
7

> <PUBCHEM_CACTVS_HBOND_DONOR>
0

> <PUBCHEM_CACTVS_ROTATABLE_BOND>
4

> <PUBCHEM_CACTVS_SUBSKEYS>
AAADceB6MYBAAAAAAAAAAAAAAAAAAWAAAAAwYAAAAAAAAFjBAAAAHwQAAAAADSzBmBQyBoMAAAKAAiBCAHACAAAgIAAIiAAOCIgIJiKAkROEMAAkwBGIiAeQ0PMOgAABAAAYAAAQAAaAADQAAAAAAAAAAA==

> <PUBCHEM_IUPAC_OPENEYE_NAME>
(3-propyl-1,2,3a,4,5,9b-hexahydrobenzo[e]indol-6-yl) trifluoromethanesulfonate

> <PUBCHEM_IUPAC_CAS_NAME>
trifluoromethanesulfonic acid (3-propyl-1,2,3a,4,5,9b-hexahydrobenzo[e]indol-6-yl) ester

> <PUBCHEM_IUPAC_NAME_MARKUP>
(3-propyl-1,2,3<I>a</I>,4,5,9<I>b</I>-hexahydrobenzo[e]indol-6-yl) trifluoromethanesulfonate

> <PUBCHEM_IUPAC_NAME>
(3-propyl-1,2,3a,4,5,9b-hexahydrobenzo[e]indol-6-yl) trifluoromethanesulfonate

> <PUBCHEM_IUPAC_SYSTEMATIC_NAME>
(3-propyl-1,2,3a,4,5,9b-hexahydrobenzo[e]indol-6-yl) tris(fluoranyl)methanesulfonate

> <PUBCHEM_IUPAC_TRADITIONAL_NAME>
trifluoromethanesulfonic acid (3-propyl-1,2,3a,4,5,9b-hexahydrobenz[e]indol-6-yl) ester

> <PUBCHEM_IUPAC_INCHI>
InChI=1S/C16H20F3NO3S/c1-2-9-20-10-8-12-11-4-3-5-15(13(11)6-7-14(12)20)23-24(21,22)16(17,18)19/h3-5,12,14H,2,6-10H2,1H3

> <PUBCHEM_IUPAC_INCHIKEY>
ASMVKSNPCVNVFO-UHFFFAOYSA-N

> <PUBCHEM_XLOGP3_AA>
4.2

> <PUBCHEM_EXACT_MASS>
363.11159916

> <PUBCHEM_MOLECULAR_FORMULA>
C16H20F3NO3S

> <PUBCHEM_MOLECULAR_WEIGHT>
363.4

> <PUBCHEM_OPENEYE_CAN_SMILES>
CCCN1CCC2C1CCC3=C2C=CC=C3OS(=O)(=O)C(F)(F)F

> <PUBCHEM_OPENEYE_ISO_SMILES>
CCCN1CCC2C1CCC3=C2C=CC=C3OS(=O)(=O)C(F)(F)F

> <PUBCHEM_CACTVS_TPSA>
55

> <PUBCHEM_MONOISOTOPIC_WEIGHT>
363.11159916

> <PUBCHEM_TOTAL_CHARGE>
0

> <PUBCHEM_HEAVY_ATOM_COUNT>
24

> <PUBCHEM_ATOM_DEF_STEREO_COUNT>
0

> <PUBCHEM_ATOM_UDEF_STEREO_COUNT>
2

> <PUBCHEM_BOND_DEF_STEREO_COUNT>
0

> <PUBCHEM_BOND_UDEF_STEREO_COUNT>
0

> <PUBCHEM_ISOTOPIC_ATOM_COUNT>
0

> <PUBCHEM_COMPONENT_COUNT>
1

> <PUBCHEM_CACTVS_TAUTO_COUNT>
-1

> <PUBCHEM_COORDINATE_TYPE>
1
5
255

> <PUBCHEM_BONDANNOTATIONS>
10  11  3
14  16  8
14  18  8
16  19  8
18  21  8
19  22  8
21  22  8
9  12  3

$$$$
