138671231
  -OEChem-09292322452D

 76 81  0     1  0  0  0  0  0999 V2000
   18.9151   -2.0899    0.0000 F   0  0  0  0  0  0  0  0  0  0  0  0
   18.2127   -0.8624    0.0000 F   0  0  0  0  0  0  0  0  0  0  0  0
   15.8547   -3.0264    0.0000 O   0  0  0  0  0  0  0  0  0  0  0  0
    5.5000    0.5959    0.0000 O   0  0  0  0  0  0  0  0  0  0  0  0
   11.0000   -2.0022    0.0000 N   0  0  3  0  0  0  0  0  0  0  0  0
    5.5000   -1.1362    0.0000 N   0  0  0  0  0  0  0  0  0  0  0  0
   14.0846   -3.0369    0.0000 N   0  0  0  0  0  0  0  0  0  0  0  0
    3.0000    2.1257    0.0000 N   0  0  0  0  0  0  0  0  0  0  0  0
    2.1953    1.5421    0.0000 N   0  0  0  0  0  0  0  0  0  0  0  0
    8.5000   -1.1362    0.0000 C   0  0  0  0  0  0  0  0  0  0  0  0
    8.0000   -2.0022    0.0000 C   0  0  0  0  0  0  0  0  0  0  0  0
    8.0000   -0.2702    0.0000 C   0  0  0  0  0  0  0  0  0  0  0  0
    6.5000   -1.1362    0.0000 C   0  0  0  0  0  0  0  0  0  0  0  0
    7.0000   -2.0022    0.0000 C   0  0  0  0  0  0  0  0  0  0  0  0
    7.0000   -0.2702    0.0000 C   0  0  0  0  0  0  0  0  0  0  0  0
    9.5000   -1.1362    0.0000 C   0  0  0  0  0  0  0  0  0  0  0  0
   10.0000   -2.0022    0.0000 C   0  0  0  0  0  0  0  0  0  0  0  0
   11.4339   -1.1012    0.0000 C   0  0  0  0  0  0  0  0  0  0  0  0
   11.4339   -2.9032    0.0000 C   0  0  0  0  0  0  0  0  0  0  0  0
   16.7227   -2.5297    0.0000 C   0  0  0  0  0  0  0  0  0  0  0  0
   17.6876   -2.7922    0.0000 C   0  0  0  0  0  0  0  0  0  0  0  0
   16.9852   -1.5648    0.0000 C   0  0  0  0  0  0  0  0  0  0  0  0
   17.9502   -1.8273    0.0000 C   0  0  0  0  0  0  0  0  0  0  0  0
   12.4088   -0.8787    0.0000 C   0  0  0  0  0  0  0  0  0  0  0  0
   12.4088   -3.1257    0.0000 C   0  0  0  0  0  0  0  0  0  0  0  0
   13.1906   -1.5022    0.0000 C   0  0  0  0  0  0  0  0  0  0  0  0
   13.1906   -2.5022    0.0000 C   0  0  0  0  0  0  0  0  0  0  0  0
    5.0000   -0.2702    0.0000 C   0  0  0  0  0  0  0  0  0  0  0  0
   14.9907   -2.5230    0.0000 C   0  0  0  0  0  0  0  0  0  0  0  0
   14.0846   -0.9675    0.0000 C   0  0  0  0  0  0  0  0  0  0  0  0
    4.0000   -0.2702    0.0000 C   0  0  0  0  0  0  0  0  0  0  0  0
   14.9907   -1.4814    0.0000 C   0  0  0  0  0  0  0  0  0  0  0  0
    3.5000    0.5959    0.0000 C   0  0  0  0  0  0  0  0  0  0  0  0
    3.5000   -1.1362    0.0000 C   0  0  0  0  0  0  0  0  0  0  0  0
    2.5000    0.5959    0.0000 C   0  0  0  0  0  0  0  0  0  0  0  0
    3.8047    1.5421    0.0000 C   0  0  0  0  0  0  0  0  0  0  0  0
    2.5000   -1.1362    0.0000 C   0  0  0  0  0  0  0  0  0  0  0  0
    2.0000   -0.2702    0.0000 C   0  0  0  0  0  0  0  0  0  0  0  0
    3.0000    3.1257    0.0000 C   0  0  0  0  0  0  0  0  0  0  0  0
    8.8100   -0.5992    0.0000 H   0  0  0  0  0  0  0  0  0  0  0  0
    7.8923   -2.6128    0.0000 H   0  0  0  0  0  0  0  0  0  0  0  0
    8.5826   -2.2143    0.0000 H   0  0  0  0  0  0  0  0  0  0  0  0
    8.5826   -0.0581    0.0000 H   0  0  0  0  0  0  0  0  0  0  0  0
    7.8923    0.3404    0.0000 H   0  0  0  0  0  0  0  0  0  0  0  0
    6.1900   -0.5992    0.0000 H   0  0  0  0  0  0  0  0  0  0  0  0
    6.4174   -2.2143    0.0000 H   0  0  0  0  0  0  0  0  0  0  0  0
    7.1077   -2.6128    0.0000 H   0  0  0  0  0  0  0  0  0  0  0  0
    7.1077    0.3404    0.0000 H   0  0  0  0  0  0  0  0  0  0  0  0
    6.4174   -0.0581    0.0000 H   0  0  0  0  0  0  0  0  0  0  0  0
   10.0826   -0.9241    0.0000 H   0  0  0  0  0  0  0  0  0  0  0  0
    9.3923   -0.5256    0.0000 H   0  0  0  0  0  0  0  0  0  0  0  0
    9.4174   -2.2143    0.0000 H   0  0  0  0  0  0  0  0  0  0  0  0
   10.1077   -2.6128    0.0000 H   0  0  0  0  0  0  0  0  0  0  0  0
    5.1900   -1.6731    0.0000 H   0  0  0  0  0  0  0  0  0  0  0  0
   11.4339   -0.4812    0.0000 H   0  0  0  0  0  0  0  0  0  0  0  0
   10.8294   -0.9633    0.0000 H   0  0  0  0  0  0  0  0  0  0  0  0
   10.8294   -3.0411    0.0000 H   0  0  0  0  0  0  0  0  0  0  0  0
   11.4339   -3.5232    0.0000 H   0  0  0  0  0  0  0  0  0  0  0  0
   16.8012   -3.1447    0.0000 H   0  0  0  0  0  0  0  0  0  0  0  0
   17.5248   -3.3905    0.0000 H   0  0  0  0  0  0  0  0  0  0  0  0
   18.2859   -2.9550    0.0000 H   0  0  0  0  0  0  0  0  0  0  0  0
   17.1480   -0.9665    0.0000 H   0  0  0  0  0  0  0  0  0  0  0  0
   16.3870   -1.4020    0.0000 H   0  0  0  0  0  0  0  0  0  0  0  0
   12.8935   -0.4922    0.0000 H   0  0  0  0  0  0  0  0  0  0  0  0
   12.1398   -0.3201    0.0000 H   0  0  0  0  0  0  0  0  0  0  0  0
   12.1398   -3.6843    0.0000 H   0  0  0  0  0  0  0  0  0  0  0  0
   12.8935   -3.5123    0.0000 H   0  0  0  0  0  0  0  0  0  0  0  0
   14.0774   -0.3476    0.0000 H   0  0  0  0  0  0  0  0  0  0  0  0
   15.5264   -1.1693    0.0000 H   0  0  0  0  0  0  0  0  0  0  0  0
    3.8100   -1.6731    0.0000 H   0  0  0  0  0  0  0  0  0  0  0  0
    4.3940    1.7347    0.0000 H   0  0  0  0  0  0  0  0  0  0  0  0
    2.1900   -1.6731    0.0000 H   0  0  0  0  0  0  0  0  0  0  0  0
    1.3800   -0.2702    0.0000 H   0  0  0  0  0  0  0  0  0  0  0  0
    3.6200    3.1257    0.0000 H   0  0  0  0  0  0  0  0  0  0  0  0
    3.0000    3.7457    0.0000 H   0  0  0  0  0  0  0  0  0  0  0  0
    2.3800    3.1257    0.0000 H   0  0  0  0  0  0  0  0  0  0  0  0
  1 23  1  0  0  0  0
  2 23  1  0  0  0  0
  3 20  1  0  0  0  0
  3 29  1  0  0  0  0
  4 28  2  0  0  0  0
  5 17  1  0  0  0  0
  5 18  1  0  0  0  0
  5 19  1  0  0  0  0
  6 13  1  0  0  0  0
  6 28  1  0  0  0  0
  6 54  1  0  0  0  0
  7 27  1  0  0  0  0
  7 29  2  0  0  0  0
  8  9  1  0  0  0  0
  8 36  1  0  0  0  0
  8 39  1  0  0  0  0
  9 35  2  0  0  0  0
 10 11  1  0  0  0  0
 10 12  1  0  0  0  0
 10 16  1  0  0  0  0
 10 40  1  0  0  0  0
 11 14  1  0  0  0  0
 11 41  1  0  0  0  0
 11 42  1  0  0  0  0
 12 15  1  0  0  0  0
 12 43  1  0  0  0  0
 12 44  1  0  0  0  0
 13 14  1  0  0  0  0
 13 15  1  0  0  0  0
 13 45  1  0  0  0  0
 14 46  1  0  0  0  0
 14 47  1  0  0  0  0
 15 48  1  0  0  0  0
 15 49  1  0  0  0  0
 16 17  1  0  0  0  0
 16 50  1  0  0  0  0
 16 51  1  0  0  0  0
 17 52  1  0  0  0  0
 17 53  1  0  0  0  0
 18 24  1  0  0  0  0
 18 55  1  0  0  0  0
 18 56  1  0  0  0  0
 19 25  1  0  0  0  0
 19 57  1  0  0  0  0
 19 58  1  0  0  0  0
 20 21  1  0  0  0  0
 20 22  1  0  0  0  0
 20 59  1  0  0  0  0
 21 23  1  0  0  0  0
 21 60  1  0  0  0  0
 21 61  1  0  0  0  0
 22 23  1  0  0  0  0
 22 62  1  0  0  0  0
 22 63  1  0  0  0  0
 24 26  1  0  0  0  0
 24 64  1  0  0  0  0
 24 65  1  0  0  0  0
 25 27  1  0  0  0  0
 25 66  1  0  0  0  0
 25 67  1  0  0  0  0
 26 27  2  0  0  0  0
 26 30  1  0  0  0  0
 28 31  1  0  0  0  0
 29 32  1  0  0  0  0
 30 32  2  0  0  0  0
 30 68  1  0  0  0  0
 31 33  1  0  0  0  0
 31 34  2  0  0  0  0
 32 69  1  0  0  0  0
 33 35  1  0  0  0  0
 33 36  2  0  0  0  0
 34 37  1  0  0  0  0
 34 70  1  0  0  0  0
 35 38  1  0  0  0  0
 36 71  1  0  0  0  0
 37 38  2  0  0  0  0
 37 72  1  0  0  0  0
 38 73  1  0  0  0  0
 39 74  1  0  0  0  0
 39 75  1  0  0  0  0
 39 76  1  0  0  0  0
M  END
> <PUBCHEM_COMPOUND_CID>
138671231

> <PUBCHEM_COMPOUND_CANONICALIZED>
1

> <PUBCHEM_CACTVS_COMPLEXITY>
832

> <PUBCHEM_CACTVS_HBOND_ACCEPTOR>
7

> <PUBCHEM_CACTVS_HBOND_DONOR>
1

> <PUBCHEM_CACTVS_ROTATABLE_BOND>
7

> <PUBCHEM_CACTVS_SUBSKEYS>
AAADcfB7sYAAAAAAAAAAAAAAAABgAWAAAAA8YIAABYAAAFgB/AAAHwAYAAAADTzhnhY+xPPIFACqAzV3VACSjCA1oiAY2KE+bNgMJvLE9duOvSjk3hHI6Yec2KGOgAAAQAASAAAQAACAACQAAAAAAAAAAA==

> <PUBCHEM_IUPAC_OPENEYE_NAME>
N-[4-[2-[2-(3,3-difluorocyclobutoxy)-5,6,8,9-tetrahydropyrido[2,3-d]azepin-7-yl]ethyl]cyclohexyl]-2-methyl-indazole-4-carboxamide

> <PUBCHEM_IUPAC_CAS_NAME>
N-[4-[2-[2-(3,3-difluorocyclobutyl)oxy-5,6,8,9-tetrahydropyrido[2,3-d]azepin-7-yl]ethyl]cyclohexyl]-2-methyl-4-indazolecarboxamide

> <PUBCHEM_IUPAC_NAME_MARKUP>
<I>N</I>-[4-[2-[2-(3,3-difluorocyclobutyl)oxy-5,6,8,9-tetrahydropyrido[2,3-d]azepin-7-yl]ethyl]cyclohexyl]-2-methylindazole-4-carboxamide

> <PUBCHEM_IUPAC_NAME>
N-[4-[2-[2-(3,3-difluorocyclobutyl)oxy-5,6,8,9-tetrahydropyrido[2,3-d]azepin-7-yl]ethyl]cyclohexyl]-2-methylindazole-4-carboxamide

> <PUBCHEM_IUPAC_SYSTEMATIC_NAME>
N-[4-[2-[2-[3,3-bis(fluoranyl)cyclobutyl]oxy-5,6,8,9-tetrahydropyrido[2,3-d]azepin-7-yl]ethyl]cyclohexyl]-2-methyl-indazole-4-carboxamide

> <PUBCHEM_IUPAC_TRADITIONAL_NAME>
N-[4-[2-[2-(3,3-difluorocyclobutoxy)-5,6,8,9-tetrahydropyrid[2,3-d]azepin-7-yl]ethyl]cyclohexyl]-2-methyl-indazole-4-carboxamide

> <PUBCHEM_IUPAC_INCHI>
InChI=1S/C30H37F2N5O2/c1-36-19-25-24(3-2-4-27(25)35-36)29(38)33-22-8-5-20(6-9-22)11-14-37-15-12-21-7-10-28(34-26(21)13-16-37)39-23-17-30(31,32)18-23/h2-4,7,10,19-20,22-23H,5-6,8-9,11-18H2,1H3,(H,33,38)

> <PUBCHEM_IUPAC_INCHIKEY>
ANUOVSVJABNEPR-UHFFFAOYSA-N

> <PUBCHEM_XLOGP3_AA>
5.3

> <PUBCHEM_EXACT_MASS>
537.29153176

> <PUBCHEM_MOLECULAR_FORMULA>
C30H37F2N5O2

> <PUBCHEM_MOLECULAR_WEIGHT>
537.6

> <PUBCHEM_OPENEYE_CAN_SMILES>
CN1C=C2C(=N1)C=CC=C2C(=O)NC3CCC(CC3)CCN4CCC5=C(CC4)N=C(C=C5)OC6CC(C6)(F)F

> <PUBCHEM_OPENEYE_ISO_SMILES>
CN1C=C2C(=N1)C=CC=C2C(=O)NC3CCC(CC3)CCN4CCC5=C(CC4)N=C(C=C5)OC6CC(C6)(F)F

> <PUBCHEM_CACTVS_TPSA>
72.3

> <PUBCHEM_MONOISOTOPIC_WEIGHT>
537.29153176

> <PUBCHEM_TOTAL_CHARGE>
0

> <PUBCHEM_HEAVY_ATOM_COUNT>
39

> <PUBCHEM_ATOM_DEF_STEREO_COUNT>
0

> <PUBCHEM_ATOM_UDEF_STEREO_COUNT>
0

> <PUBCHEM_BOND_DEF_STEREO_COUNT>
0

> <PUBCHEM_BOND_UDEF_STEREO_COUNT>
0

> <PUBCHEM_ISOTOPIC_ATOM_COUNT>
0

> <PUBCHEM_COMPONENT_COUNT>
1

> <PUBCHEM_CACTVS_TAUTO_COUNT>
-1

> <PUBCHEM_COORDINATE_TYPE>
1
5
255

> <PUBCHEM_BONDANNOTATIONS>
26  27  8
26  30  8
29  32  8
30  32  8
31  33  8
31  34  8
33  35  8
33  36  8
34  37  8
35  38  8
37  38  8
7  27  8
7  29  8
8  36  8
8  9  8
9  35  8

$$$$
