72699692
  -OEChem-09292322382D

 62 65  0     0  0  0  0  0  0999 V2000
    4.6783   -5.5628    0.0000 S   0  0  0  0  0  0  0  0  0  0  0  0
    9.7884    3.3190    0.0000 O   0  0  0  0  0  0  0  0  0  0  0  0
    5.6103   -1.1018    0.0000 N   0  0  0  0  0  0  0  0  0  0  0  0
    8.1421    3.8570    0.0000 N   0  0  0  0  0  0  0  0  0  0  0  0
    4.9889   -3.0028    0.0000 N   0  0  0  0  0  0  0  0  0  0  0  0
    9.4312    5.0138    0.0000 N   0  0  0  0  0  0  0  0  0  0  0  0
    5.2619   -4.7581    0.0000 N   0  0  0  0  0  0  0  0  0  0  0  0
    7.2101    1.0055    0.0000 C   0  0  0  0  0  0  0  0  0  0  0  0
    8.1886    1.2117    0.0000 C   0  0  0  0  0  0  0  0  0  0  0  0
    6.5422    1.7498    0.0000 C   0  0  0  0  0  0  0  0  0  0  0  0
    7.8314    2.9065    0.0000 C   0  0  0  0  0  0  0  0  0  0  0  0
    8.4993    2.1622    0.0000 C   0  0  0  0  0  0  0  0  0  0  0  0
    6.8529    2.7003    0.0000 C   0  0  0  0  0  0  0  0  0  0  0  0
    6.8994    0.0550    0.0000 C   0  0  0  0  0  0  0  0  0  0  0  0
    5.9209   -0.1513    0.0000 C   0  0  0  0  0  0  0  0  0  0  0  0
    6.2781   -1.8461    0.0000 C   0  0  0  0  0  0  0  0  0  0  0  0
    4.6318   -1.3080    0.0000 C   0  0  0  0  0  0  0  0  0  0  0  0
    5.9674   -2.7966    0.0000 C   0  0  0  0  0  0  0  0  0  0  0  0
    4.3211   -2.2585    0.0000 C   0  0  0  0  0  0  0  0  0  0  0  0
    9.1206    4.0633    0.0000 C   0  0  0  0  0  0  0  0  0  0  0  0
    4.6783   -3.9533    0.0000 C   0  0  0  0  0  0  0  0  0  0  0  0
    3.7320   -4.2581    0.0000 C   0  0  0  0  0  0  0  0  0  0  0  0
    3.7320   -5.2581    0.0000 C   0  0  0  0  0  0  0  0  0  0  0  0
    2.8660   -3.7581    0.0000 C   0  0  0  0  0  0  0  0  0  0  0  0
   10.4097    5.2200    0.0000 C   0  0  0  0  0  0  0  0  0  0  0  0
    8.7634    5.7581    0.0000 C   0  0  0  0  0  0  0  0  0  0  0  0
    2.8660   -5.7581    0.0000 C   0  0  0  0  0  0  0  0  0  0  0  0
    2.0000   -4.2581    0.0000 C   0  0  0  0  0  0  0  0  0  0  0  0
    2.0000   -5.2581    0.0000 C   0  0  0  0  0  0  0  0  0  0  0  0
    7.6242    0.5440    0.0000 H   0  0  0  0  0  0  0  0  0  0  0  0
    8.2092    0.5920    0.0000 H   0  0  0  0  0  0  0  0  0  0  0  0
    8.8024    1.1243    0.0000 H   0  0  0  0  0  0  0  0  0  0  0  0
    5.9953    2.0418    0.0000 H   0  0  0  0  0  0  0  0  0  0  0  0
    6.1597    1.2619    0.0000 H   0  0  0  0  0  0  0  0  0  0  0  0
    8.4381    3.0344    0.0000 H   0  0  0  0  0  0  0  0  0  0  0  0
    9.0462    1.8702    0.0000 H   0  0  0  0  0  0  0  0  0  0  0  0
    8.8818    2.6501    0.0000 H   0  0  0  0  0  0  0  0  0  0  0  0
    6.8323    3.3200    0.0000 H   0  0  0  0  0  0  0  0  0  0  0  0
    6.2391    2.7877    0.0000 H   0  0  0  0  0  0  0  0  0  0  0  0
    6.9200   -0.5647    0.0000 H   0  0  0  0  0  0  0  0  0  0  0  0
    7.5132   -0.0324    0.0000 H   0  0  0  0  0  0  0  0  0  0  0  0
    5.9004    0.4684    0.0000 H   0  0  0  0  0  0  0  0  0  0  0  0
    5.3071   -0.0639    0.0000 H   0  0  0  0  0  0  0  0  0  0  0  0
    6.8250   -2.1381    0.0000 H   0  0  0  0  0  0  0  0  0  0  0  0
    6.6607   -1.3582    0.0000 H   0  0  0  0  0  0  0  0  0  0  0  0
    4.6112   -0.6883    0.0000 H   0  0  0  0  0  0  0  0  0  0  0  0
    4.0179   -1.2206    0.0000 H   0  0  0  0  0  0  0  0  0  0  0  0
    7.7280    4.3185    0.0000 H   0  0  0  0  0  0  0  0  0  0  0  0
    5.9880   -3.4163    0.0000 H   0  0  0  0  0  0  0  0  0  0  0  0
    6.5812   -2.8840    0.0000 H   0  0  0  0  0  0  0  0  0  0  0  0
    3.7742   -1.9665    0.0000 H   0  0  0  0  0  0  0  0  0  0  0  0
    3.9385   -2.7464    0.0000 H   0  0  0  0  0  0  0  0  0  0  0  0
    2.8660   -3.1381    0.0000 H   0  0  0  0  0  0  0  0  0  0  0  0
   10.5376    4.6133    0.0000 H   0  0  0  0  0  0  0  0  0  0  0  0
   11.0164    5.3478    0.0000 H   0  0  0  0  0  0  0  0  0  0  0  0
   10.2819    5.8267    0.0000 H   0  0  0  0  0  0  0  0  0  0  0  0
    9.2249    6.1721    0.0000 H   0  0  0  0  0  0  0  0  0  0  0  0
    8.3493    6.2195    0.0000 H   0  0  0  0  0  0  0  0  0  0  0  0
    8.3019    5.3440    0.0000 H   0  0  0  0  0  0  0  0  0  0  0  0
    2.8660   -6.3781    0.0000 H   0  0  0  0  0  0  0  0  0  0  0  0
    1.4631   -3.9481    0.0000 H   0  0  0  0  0  0  0  0  0  0  0  0
    1.4631   -5.5681    0.0000 H   0  0  0  0  0  0  0  0  0  0  0  0
  1  7  1  0  0  0  0
  1 23  1  0  0  0  0
  2 20  2  0  0  0  0
  3 15  1  0  0  0  0
  3 16  1  0  0  0  0
  3 17  1  0  0  0  0
  4 11  1  0  0  0  0
  4 20  1  0  0  0  0
  4 48  1  0  0  0  0
  5 18  1  0  0  0  0
  5 19  1  0  0  0  0
  5 21  1  0  0  0  0
  6 20  1  0  0  0  0
  6 25  1  0  0  0  0
  6 26  1  0  0  0  0
  7 21  2  0  0  0  0
  8  9  1  0  0  0  0
  8 10  1  0  0  0  0
  8 14  1  0  0  0  0
  8 30  1  0  0  0  0
  9 12  1  0  0  0  0
  9 31  1  0  0  0  0
  9 32  1  0  0  0  0
 10 13  1  0  0  0  0
 10 33  1  0  0  0  0
 10 34  1  0  0  0  0
 11 12  1  0  0  0  0
 11 13  1  0  0  0  0
 11 35  1  0  0  0  0
 12 36  1  0  0  0  0
 12 37  1  0  0  0  0
 13 38  1  0  0  0  0
 13 39  1  0  0  0  0
 14 15  1  0  0  0  0
 14 40  1  0  0  0  0
 14 41  1  0  0  0  0
 15 42  1  0  0  0  0
 15 43  1  0  0  0  0
 16 18  1  0  0  0  0
 16 44  1  0  0  0  0
 16 45  1  0  0  0  0
 17 19  1  0  0  0  0
 17 46  1  0  0  0  0
 17 47  1  0  0  0  0
 18 49  1  0  0  0  0
 18 50  1  0  0  0  0
 19 51  1  0  0  0  0
 19 52  1  0  0  0  0
 21 22  1  0  0  0  0
 22 23  1  0  0  0  0
 22 24  2  0  0  0  0
 23 27  2  0  0  0  0
 24 28  1  0  0  0  0
 24 53  1  0  0  0  0
 25 54  1  0  0  0  0
 25 55  1  0  0  0  0
 25 56  1  0  0  0  0
 26 57  1  0  0  0  0
 26 58  1  0  0  0  0
 26 59  1  0  0  0  0
 27 29  1  0  0  0  0
 27 60  1  0  0  0  0
 28 29  2  0  0  0  0
 28 61  1  0  0  0  0
 29 62  1  0  0  0  0
M  END
> <PUBCHEM_COMPOUND_CID>
72699692

> <PUBCHEM_COMPOUND_CANONICALIZED>
1

> <PUBCHEM_CACTVS_COMPLEXITY>
531

> <PUBCHEM_CACTVS_HBOND_ACCEPTOR>
5

> <PUBCHEM_CACTVS_HBOND_DONOR>
1

> <PUBCHEM_CACTVS_ROTATABLE_BOND>
5

> <PUBCHEM_CACTVS_SUBSKEYS>
AAADcfB7oABAAAAAAAAAAAAAAAAAAWAAAAA8YIAAAAAAAFgB8AAAHgQQQAAADSjBWgQzsdPAAACsAiJicACDABAhAABJmLgoRJiIYKLAmZGUIAxolgLIyAcQgIAOAAAAAAAEAAAQAAAAAAgAAAAAAAAAAA==

> <PUBCHEM_IUPAC_OPENEYE_NAME>
3-[4-[2-[4-(1,2-benzothiazol-3-yl)piperazin-1-yl]ethyl]cyclohexyl]-1,1-dimethyl-urea

> <PUBCHEM_IUPAC_CAS_NAME>
3-[4-[2-[4-(1,2-benzothiazol-3-yl)-1-piperazinyl]ethyl]cyclohexyl]-1,1-dimethylurea

> <PUBCHEM_IUPAC_NAME_MARKUP>
3-[4-[2-[4-(1,2-benzothiazol-3-yl)piperazin-1-yl]ethyl]cyclohexyl]-1,1-dimethylurea

> <PUBCHEM_IUPAC_NAME>
3-[4-[2-[4-(1,2-benzothiazol-3-yl)piperazin-1-yl]ethyl]cyclohexyl]-1,1-dimethylurea

> <PUBCHEM_IUPAC_SYSTEMATIC_NAME>
3-[4-[2-[4-(1,2-benzothiazol-3-yl)piperazin-1-yl]ethyl]cyclohexyl]-1,1-dimethyl-urea

> <PUBCHEM_IUPAC_TRADITIONAL_NAME>
3-[4-[2-[4-(1,2-benzothiazol-3-yl)piperazino]ethyl]cyclohexyl]-1,1-dimethyl-urea

> <PUBCHEM_IUPAC_INCHI>
InChI=1S/C22H33N5OS/c1-25(2)22(28)23-18-9-7-17(8-10-18)11-12-26-13-15-27(16-14-26)21-19-5-3-4-6-20(19)29-24-21/h3-6,17-18H,7-16H2,1-2H3,(H,23,28)

> <PUBCHEM_IUPAC_INCHIKEY>
KWNJJPLLFRQMRI-UHFFFAOYSA-N

> <PUBCHEM_XLOGP3_AA>
3.8

> <PUBCHEM_EXACT_MASS>
415.24058187

> <PUBCHEM_MOLECULAR_FORMULA>
C22H33N5OS

> <PUBCHEM_MOLECULAR_WEIGHT>
415.6

> <PUBCHEM_OPENEYE_CAN_SMILES>
CN(C)C(=O)NC1CCC(CC1)CCN2CCN(CC2)C3=NSC4=CC=CC=C43

> <PUBCHEM_OPENEYE_ISO_SMILES>
CN(C)C(=O)NC1CCC(CC1)CCN2CCN(CC2)C3=NSC4=CC=CC=C43

> <PUBCHEM_CACTVS_TPSA>
80

> <PUBCHEM_MONOISOTOPIC_WEIGHT>
415.24058187

> <PUBCHEM_TOTAL_CHARGE>
0

> <PUBCHEM_HEAVY_ATOM_COUNT>
29

> <PUBCHEM_ATOM_DEF_STEREO_COUNT>
0

> <PUBCHEM_ATOM_UDEF_STEREO_COUNT>
0

> <PUBCHEM_BOND_DEF_STEREO_COUNT>
0

> <PUBCHEM_BOND_UDEF_STEREO_COUNT>
0

> <PUBCHEM_ISOTOPIC_ATOM_COUNT>
0

> <PUBCHEM_COMPONENT_COUNT>
1

> <PUBCHEM_CACTVS_TAUTO_COUNT>
-1

> <PUBCHEM_COORDINATE_TYPE>
1
5
255

> <PUBCHEM_BONDANNOTATIONS>
1  23  8
1  7  8
21  22  8
22  23  8
22  24  8
23  27  8
24  28  8
27  29  8
28  29  8
7  21  8

$$$$
