44438213
  -OEChem-09292322262D

 48 51  0     0  0  0  0  0  0999 V2000
    7.8439    4.1749    0.0000 Cl  0  0  0  0  0  0  0  0  0  0  0  0
    8.8750   -0.7176    0.0000 O   0  0  0  0  0  0  0  0  0  0  0  0
    5.9674   -0.8194    0.0000 N   0  0  0  0  0  0  0  0  0  0  0  0
    4.6783   -3.5856    0.0000 N   0  0  0  0  0  0  0  0  0  0  0  0
    7.9244   -0.4070    0.0000 C   0  0  0  0  0  0  0  0  0  0  0  0
    7.6138   -1.3575    0.0000 C   0  0  0  0  0  0  0  0  0  0  0  0
    7.2566    0.3374    0.0000 C   0  0  0  0  0  0  0  0  0  0  0  0
    6.6353   -1.5637    0.0000 C   0  0  0  0  0  0  0  0  0  0  0  0
    6.2781    0.1311    0.0000 C   0  0  0  0  0  0  0  0  0  0  0  0
    8.6688    0.2609    0.0000 C   0  0  0  0  0  0  0  0  0  0  0  0
    4.9889   -1.0256    0.0000 C   0  0  0  0  0  0  0  0  0  0  0  0
    8.4625    1.2394    0.0000 C   0  0  0  0  0  0  0  0  0  0  0  0
    4.6783   -1.9761    0.0000 C   0  0  0  0  0  0  0  0  0  0  0  0
    3.7320   -2.2809    0.0000 C   0  0  0  0  0  0  0  0  0  0  0  0
    5.2619   -2.7809    0.0000 C   0  0  0  0  0  0  0  0  0  0  0  0
    9.2068    1.9072    0.0000 C   0  0  0  0  0  0  0  0  0  0  0  0
    7.5120    1.5501    0.0000 C   0  0  0  0  0  0  0  0  0  0  0  0
    3.7320   -3.2809    0.0000 C   0  0  0  0  0  0  0  0  0  0  0  0
    2.8660   -1.7809    0.0000 C   0  0  0  0  0  0  0  0  0  0  0  0
    9.0006    2.8857    0.0000 C   0  0  0  0  0  0  0  0  0  0  0  0
    7.3058    2.5286    0.0000 C   0  0  0  0  0  0  0  0  0  0  0  0
    2.8660   -3.7809    0.0000 C   0  0  0  0  0  0  0  0  0  0  0  0
    8.0501    3.1964    0.0000 C   0  0  0  0  0  0  0  0  0  0  0  0
    2.0000   -2.2809    0.0000 C   0  0  0  0  0  0  0  0  0  0  0  0
    2.0000   -3.2809    0.0000 C   0  0  0  0  0  0  0  0  0  0  0  0
    7.6344   -1.9771    0.0000 H   0  0  0  0  0  0  0  0  0  0  0  0
    8.2276   -1.4448    0.0000 H   0  0  0  0  0  0  0  0  0  0  0  0
    7.7830    0.6650    0.0000 H   0  0  0  0  0  0  0  0  0  0  0  0
    7.0254    0.9126    0.0000 H   0  0  0  0  0  0  0  0  0  0  0  0
    6.1089   -1.8913    0.0000 H   0  0  0  0  0  0  0  0  0  0  0  0
    6.8665   -2.1390    0.0000 H   0  0  0  0  0  0  0  0  0  0  0  0
    6.2575    0.7508    0.0000 H   0  0  0  0  0  0  0  0  0  0  0  0
    5.6643    0.2185    0.0000 H   0  0  0  0  0  0  0  0  0  0  0  0
    8.9964   -0.2655    0.0000 H   0  0  0  0  0  0  0  0  0  0  0  0
    9.2440    0.4922    0.0000 H   0  0  0  0  0  0  0  0  0  0  0  0
    4.9684   -0.4059    0.0000 H   0  0  0  0  0  0  0  0  0  0  0  0
    4.3751   -0.9383    0.0000 H   0  0  0  0  0  0  0  0  0  0  0  0
    9.0028   -1.3243    0.0000 H   0  0  0  0  0  0  0  0  0  0  0  0
    5.8819   -2.7809    0.0000 H   0  0  0  0  0  0  0  0  0  0  0  0
    9.7962    1.7146    0.0000 H   0  0  0  0  0  0  0  0  0  0  0  0
    7.0506    1.1360    0.0000 H   0  0  0  0  0  0  0  0  0  0  0  0
    4.8709   -4.1749    0.0000 H   0  0  0  0  0  0  0  0  0  0  0  0
    2.8660   -1.1609    0.0000 H   0  0  0  0  0  0  0  0  0  0  0  0
    9.4621    3.2998    0.0000 H   0  0  0  0  0  0  0  0  0  0  0  0
    6.7165    2.7212    0.0000 H   0  0  0  0  0  0  0  0  0  0  0  0
    2.8660   -4.4009    0.0000 H   0  0  0  0  0  0  0  0  0  0  0  0
    1.4631   -1.9709    0.0000 H   0  0  0  0  0  0  0  0  0  0  0  0
    1.4631   -3.5909    0.0000 H   0  0  0  0  0  0  0  0  0  0  0  0
  1 23  1  0  0  0  0
  2  5  1  0  0  0  0
  2 38  1  0  0  0  0
  3  8  1  0  0  0  0
  3  9  1  0  0  0  0
  3 11  1  0  0  0  0
  4 15  1  0  0  0  0
  4 18  1  0  0  0  0
  4 42  1  0  0  0  0
  5  6  1  0  0  0  0
  5  7  1  0  0  0  0
  5 10  1  0  0  0  0
  6  8  1  0  0  0  0
  6 26  1  0  0  0  0
  6 27  1  0  0  0  0
  7  9  1  0  0  0  0
  7 28  1  0  0  0  0
  7 29  1  0  0  0  0
  8 30  1  0  0  0  0
  8 31  1  0  0  0  0
  9 32  1  0  0  0  0
  9 33  1  0  0  0  0
 10 12  1  0  0  0  0
 10 34  1  0  0  0  0
 10 35  1  0  0  0  0
 11 13  1  0  0  0  0
 11 36  1  0  0  0  0
 11 37  1  0  0  0  0
 12 16  2  0  0  0  0
 12 17  1  0  0  0  0
 13 14  1  0  0  0  0
 13 15  2  0  0  0  0
 14 18  1  0  0  0  0
 14 19  2  0  0  0  0
 15 39  1  0  0  0  0
 16 20  1  0  0  0  0
 16 40  1  0  0  0  0
 17 21  2  0  0  0  0
 17 41  1  0  0  0  0
 18 22  2  0  0  0  0
 19 24  1  0  0  0  0
 19 43  1  0  0  0  0
 20 23  2  0  0  0  0
 20 44  1  0  0  0  0
 21 23  1  0  0  0  0
 21 45  1  0  0  0  0
 22 25  1  0  0  0  0
 22 46  1  0  0  0  0
 24 25  2  0  0  0  0
 24 47  1  0  0  0  0
 25 48  1  0  0  0  0
M  END
> <PUBCHEM_COMPOUND_CID>
44438213

> <PUBCHEM_COMPOUND_CANONICALIZED>
1

> <PUBCHEM_CACTVS_COMPLEXITY>
430

> <PUBCHEM_CACTVS_HBOND_ACCEPTOR>
2

> <PUBCHEM_CACTVS_HBOND_DONOR>
2

> <PUBCHEM_CACTVS_ROTATABLE_BOND>
4

> <PUBCHEM_CACTVS_SUBSKEYS>
AAADceB7IAAEAAAAAAAAAAAAAAAAAWAAAAA8YIAAAAAAAFgB9AAAHgIQCAAADE7BniQ8wPPJkgCgAzRnRACCgCAxByAI2aA4ZpgIIOLB05GEYAhm0AHIyAeQwOAOhAAAAAACAAAIAAAAAAQAAAAAAAAAAA==

> <PUBCHEM_IUPAC_OPENEYE_NAME>
4-[(4-chlorophenyl)methyl]-1-(1H-indol-3-ylmethyl)piperidin-4-ol

> <PUBCHEM_IUPAC_CAS_NAME>
4-[(4-chlorophenyl)methyl]-1-(1H-indol-3-ylmethyl)-4-piperidinol

> <PUBCHEM_IUPAC_NAME_MARKUP>
4-[(4-chlorophenyl)methyl]-1-(1<I>H</I>-indol-3-ylmethyl)piperidin-4-ol

> <PUBCHEM_IUPAC_NAME>
4-[(4-chlorophenyl)methyl]-1-(1H-indol-3-ylmethyl)piperidin-4-ol

> <PUBCHEM_IUPAC_SYSTEMATIC_NAME>
4-[(4-chlorophenyl)methyl]-1-(1H-indol-3-ylmethyl)piperidin-4-ol

> <PUBCHEM_IUPAC_TRADITIONAL_NAME>
4-(4-chlorobenzyl)-1-(1H-indol-3-ylmethyl)piperidin-4-ol

> <PUBCHEM_IUPAC_INCHI>
InChI=1S/C21H23ClN2O/c22-18-7-5-16(6-8-18)13-21(25)9-11-24(12-10-21)15-17-14-23-20-4-2-1-3-19(17)20/h1-8,14,23,25H,9-13,15H2

> <PUBCHEM_IUPAC_INCHIKEY>
SJDLUAQSQRBWLX-UHFFFAOYSA-N

> <PUBCHEM_XLOGP3_AA>
4.2

> <PUBCHEM_EXACT_MASS>
354.1498911

> <PUBCHEM_MOLECULAR_FORMULA>
C21H23ClN2O

> <PUBCHEM_MOLECULAR_WEIGHT>
354.9

> <PUBCHEM_OPENEYE_CAN_SMILES>
C1CN(CCC1(CC2=CC=C(C=C2)Cl)O)CC3=CNC4=CC=CC=C43

> <PUBCHEM_OPENEYE_ISO_SMILES>
C1CN(CCC1(CC2=CC=C(C=C2)Cl)O)CC3=CNC4=CC=CC=C43

> <PUBCHEM_CACTVS_TPSA>
39.3

> <PUBCHEM_MONOISOTOPIC_WEIGHT>
354.1498911

> <PUBCHEM_TOTAL_CHARGE>
0

> <PUBCHEM_HEAVY_ATOM_COUNT>
25

> <PUBCHEM_ATOM_DEF_STEREO_COUNT>
0

> <PUBCHEM_ATOM_UDEF_STEREO_COUNT>
0

> <PUBCHEM_BOND_DEF_STEREO_COUNT>
0

> <PUBCHEM_BOND_UDEF_STEREO_COUNT>
0

> <PUBCHEM_ISOTOPIC_ATOM_COUNT>
0

> <PUBCHEM_COMPONENT_COUNT>
1

> <PUBCHEM_CACTVS_TAUTO_COUNT>
-1

> <PUBCHEM_COORDINATE_TYPE>
1
5
255

> <PUBCHEM_BONDANNOTATIONS>
12  16  8
12  17  8
13  14  8
13  15  8
14  18  8
14  19  8
16  20  8
17  21  8
18  22  8
19  24  8
20  23  8
21  23  8
22  25  8
24  25  8
4  15  8
4  18  8

$$$$
