44283889
  -OEChem-09292322502D

 54 57  0     1  0  0  0  0  0999 V2000
    4.9889   -5.2883    0.0000 O   0  0  0  0  0  0  0  0  0  0  0  0
    8.1421    5.0821    0.0000 O   0  0  0  0  0  0  0  0  0  0  0  0
    6.2781   -0.6210    0.0000 N   0  0  0  0  0  0  0  0  0  0  0  0
    6.8994    1.2800    0.0000 N   0  0  0  0  0  0  0  0  0  0  0  0
    5.2619   -3.5330    0.0000 N   0  0  0  0  0  0  0  0  0  0  0  0
    4.6783   -2.7283    0.0000 C   0  0  3  0  0  0  0  0  0  0  0  0
    4.9889   -1.7778    0.0000 C   0  0  0  0  0  0  0  0  0  0  0  0
    5.9674   -1.5716    0.0000 C   0  0  0  0  0  0  0  0  0  0  0  0
    7.2566   -0.4148    0.0000 C   0  0  0  0  0  0  0  0  0  0  0  0
    5.6103    0.1233    0.0000 C   0  0  0  0  0  0  0  0  0  0  0  0
    7.5673    0.5357    0.0000 C   0  0  0  0  0  0  0  0  0  0  0  0
    5.9209    1.0738    0.0000 C   0  0  0  0  0  0  0  0  0  0  0  0
    3.7320   -3.0330    0.0000 C   0  0  0  0  0  0  0  0  0  0  0  0
    3.7320   -4.0330    0.0000 C   0  0  0  0  0  0  0  0  0  0  0  0
    4.6783   -4.3378    0.0000 C   0  0  0  0  0  0  0  0  0  0  0  0
    7.2101    2.2305    0.0000 C   0  0  0  0  0  0  0  0  0  0  0  0
    6.2619   -3.5330    0.0000 C   0  0  0  0  0  0  0  0  0  0  0  0
    2.8660   -2.5330    0.0000 C   0  0  0  0  0  0  0  0  0  0  0  0
    2.8660   -4.5330    0.0000 C   0  0  0  0  0  0  0  0  0  0  0  0
    2.0000   -3.0330    0.0000 C   0  0  0  0  0  0  0  0  0  0  0  0
    2.0000   -4.0330    0.0000 C   0  0  0  0  0  0  0  0  0  0  0  0
    6.5422    2.9748    0.0000 C   0  0  0  0  0  0  0  0  0  0  0  0
    8.1886    2.4367    0.0000 C   0  0  0  0  0  0  0  0  0  0  0  0
    6.8529    3.9253    0.0000 C   0  0  0  0  0  0  0  0  0  0  0  0
    8.4993    3.3872    0.0000 C   0  0  0  0  0  0  0  0  0  0  0  0
    7.8314    4.1316    0.0000 C   0  0  0  0  0  0  0  0  0  0  0  0
    9.1206    5.2883    0.0000 C   0  0  0  0  0  0  0  0  0  0  0  0
    5.2908   -2.6321    0.0000 H   0  0  0  0  0  0  0  0  0  0  0  0
    4.9684   -1.1581    0.0000 H   0  0  0  0  0  0  0  0  0  0  0  0
    4.3751   -1.6904    0.0000 H   0  0  0  0  0  0  0  0  0  0  0  0
    5.9880   -2.1912    0.0000 H   0  0  0  0  0  0  0  0  0  0  0  0
    6.5812   -1.6589    0.0000 H   0  0  0  0  0  0  0  0  0  0  0  0
    7.2772   -1.0345    0.0000 H   0  0  0  0  0  0  0  0  0  0  0  0
    7.8704   -0.5022    0.0000 H   0  0  0  0  0  0  0  0  0  0  0  0
    5.0633    0.4153    0.0000 H   0  0  0  0  0  0  0  0  0  0  0  0
    5.2277   -0.3647    0.0000 H   0  0  0  0  0  0  0  0  0  0  0  0
    8.1142    0.2437    0.0000 H   0  0  0  0  0  0  0  0  0  0  0  0
    7.9498    1.0236    0.0000 H   0  0  0  0  0  0  0  0  0  0  0  0
    5.9004    1.6934    0.0000 H   0  0  0  0  0  0  0  0  0  0  0  0
    5.3071    1.1611    0.0000 H   0  0  0  0  0  0  0  0  0  0  0  0
    6.2619   -4.1530    0.0000 H   0  0  0  0  0  0  0  0  0  0  0  0
    6.8819   -3.5330    0.0000 H   0  0  0  0  0  0  0  0  0  0  0  0
    6.2619   -2.9130    0.0000 H   0  0  0  0  0  0  0  0  0  0  0  0
    2.8660   -1.9130    0.0000 H   0  0  0  0  0  0  0  0  0  0  0  0
    2.8660   -5.1530    0.0000 H   0  0  0  0  0  0  0  0  0  0  0  0
    1.4631   -2.7230    0.0000 H   0  0  0  0  0  0  0  0  0  0  0  0
    1.4631   -4.3430    0.0000 H   0  0  0  0  0  0  0  0  0  0  0  0
    5.9356    2.8470    0.0000 H   0  0  0  0  0  0  0  0  0  0  0  0
    8.6027    1.9753    0.0000 H   0  0  0  0  0  0  0  0  0  0  0  0
    6.4388    4.3868    0.0000 H   0  0  0  0  0  0  0  0  0  0  0  0
    9.1059    3.5151    0.0000 H   0  0  0  0  0  0  0  0  0  0  0  0
    9.2484    4.6816    0.0000 H   0  0  0  0  0  0  0  0  0  0  0  0
    9.7272    5.4162    0.0000 H   0  0  0  0  0  0  0  0  0  0  0  0
    8.9927    5.8950    0.0000 H   0  0  0  0  0  0  0  0  0  0  0  0
  1 15  2  0  0  0  0
  2 26  1  0  0  0  0
  2 27  1  0  0  0  0
  3  8  1  0  0  0  0
  3  9  1  0  0  0  0
  3 10  1  0  0  0  0
  4 11  1  0  0  0  0
  4 12  1  0  0  0  0
  4 16  1  0  0  0  0
  5  6  1  0  0  0  0
  5 15  1  0  0  0  0
  5 17  1  0  0  0  0
  6  7  1  0  0  0  0
  6 13  1  0  0  0  0
  6 28  1  0  0  0  0
  7  8  1  0  0  0  0
  7 29  1  0  0  0  0
  7 30  1  0  0  0  0
  8 31  1  0  0  0  0
  8 32  1  0  0  0  0
  9 11  1  0  0  0  0
  9 33  1  0  0  0  0
  9 34  1  0  0  0  0
 10 12  1  0  0  0  0
 10 35  1  0  0  0  0
 10 36  1  0  0  0  0
 11 37  1  0  0  0  0
 11 38  1  0  0  0  0
 12 39  1  0  0  0  0
 12 40  1  0  0  0  0
 13 14  1  0  0  0  0
 13 18  2  0  0  0  0
 14 15  1  0  0  0  0
 14 19  2  0  0  0  0
 16 22  2  0  0  0  0
 16 23  1  0  0  0  0
 17 41  1  0  0  0  0
 17 42  1  0  0  0  0
 17 43  1  0  0  0  0
 18 20  1  0  0  0  0
 18 44  1  0  0  0  0
 19 21  1  0  0  0  0
 19 45  1  0  0  0  0
 20 21  2  0  0  0  0
 20 46  1  0  0  0  0
 21 47  1  0  0  0  0
 22 24  1  0  0  0  0
 22 48  1  0  0  0  0
 23 25  2  0  0  0  0
 23 49  1  0  0  0  0
 24 26  2  0  0  0  0
 24 50  1  0  0  0  0
 25 26  1  0  0  0  0
 25 51  1  0  0  0  0
 27 52  1  0  0  0  0
 27 53  1  0  0  0  0
 27 54  1  0  0  0  0
M  END
> <PUBCHEM_COMPOUND_CID>
44283889

> <PUBCHEM_COMPOUND_CANONICALIZED>
1

> <PUBCHEM_CACTVS_COMPLEXITY>
498

> <PUBCHEM_CACTVS_HBOND_ACCEPTOR>
4

> <PUBCHEM_CACTVS_HBOND_DONOR>
0

> <PUBCHEM_CACTVS_ROTATABLE_BOND>
5

> <PUBCHEM_CACTVS_SUBSKEYS>
AAADceB7MAAAAAAAAAAAAAAAAAAAAWAAAAA8YIAAAAAAAFgBQAAAHgAAAAAADCzBmAYyxoMABACIAiVSUACCCAAlIgAIiAEObMgMZjLE9ZuUMShkxhHI6Ye8yICOgEAAAAAQAAAAgAAAACAAAAAAAAAAAA==

> <PUBCHEM_IUPAC_OPENEYE_NAME>
3-[2-[4-(4-methoxyphenyl)piperazin-1-yl]ethyl]-2-methyl-isoindolin-1-one

> <PUBCHEM_IUPAC_CAS_NAME>
3-[2-[4-(4-methoxyphenyl)-1-piperazinyl]ethyl]-2-methyl-3H-isoindol-1-one

> <PUBCHEM_IUPAC_NAME_MARKUP>
3-[2-[4-(4-methoxyphenyl)piperazin-1-yl]ethyl]-2-methyl-3<I>H</I>-isoindol-1-one

> <PUBCHEM_IUPAC_NAME>
3-[2-[4-(4-methoxyphenyl)piperazin-1-yl]ethyl]-2-methyl-3H-isoindol-1-one

> <PUBCHEM_IUPAC_SYSTEMATIC_NAME>
3-[2-[4-(4-methoxyphenyl)piperazin-1-yl]ethyl]-2-methyl-3H-isoindol-1-one

> <PUBCHEM_IUPAC_TRADITIONAL_NAME>
3-[2-[4-(4-methoxyphenyl)piperazino]ethyl]-2-methyl-isoindolin-1-one

> <PUBCHEM_IUPAC_INCHI>
InChI=1S/C22H27N3O2/c1-23-21(19-5-3-4-6-20(19)22(23)26)11-12-24-13-15-25(16-14-24)17-7-9-18(27-2)10-8-17/h3-10,21H,11-16H2,1-2H3

> <PUBCHEM_IUPAC_INCHIKEY>
JSGIEHICMIFPBV-UHFFFAOYSA-N

> <PUBCHEM_XLOGP3_AA>
2.9

> <PUBCHEM_EXACT_MASS>
365.21032711

> <PUBCHEM_MOLECULAR_FORMULA>
C22H27N3O2

> <PUBCHEM_MOLECULAR_WEIGHT>
365.5

> <PUBCHEM_OPENEYE_CAN_SMILES>
CN1C(C2=CC=CC=C2C1=O)CCN3CCN(CC3)C4=CC=C(C=C4)OC

> <PUBCHEM_OPENEYE_ISO_SMILES>
CN1C(C2=CC=CC=C2C1=O)CCN3CCN(CC3)C4=CC=C(C=C4)OC

> <PUBCHEM_CACTVS_TPSA>
36

> <PUBCHEM_MONOISOTOPIC_WEIGHT>
365.21032711

> <PUBCHEM_TOTAL_CHARGE>
0

> <PUBCHEM_HEAVY_ATOM_COUNT>
27

> <PUBCHEM_ATOM_DEF_STEREO_COUNT>
0

> <PUBCHEM_ATOM_UDEF_STEREO_COUNT>
1

> <PUBCHEM_BOND_DEF_STEREO_COUNT>
0

> <PUBCHEM_BOND_UDEF_STEREO_COUNT>
0

> <PUBCHEM_ISOTOPIC_ATOM_COUNT>
0

> <PUBCHEM_COMPONENT_COUNT>
1

> <PUBCHEM_CACTVS_TAUTO_COUNT>
-1

> <PUBCHEM_COORDINATE_TYPE>
1
5
255

> <PUBCHEM_BONDANNOTATIONS>
13  14  8
13  18  8
14  19  8
16  22  8
16  23  8
18  20  8
19  21  8
20  21  8
22  24  8
23  25  8
24  26  8
25  26  8
6  7  3

$$$$
