168278359
  -OEChem-09292322442D

 67 69  0     0  0  0  0  0  0999 V2000
    4.9338   12.6316    0.0000 O   0  0  0  0  0  0  0  0  0  0  0  0
    6.6325    1.0000    0.0000 O   0  0  0  0  0  0  0  0  0  0  0  0
    4.0344    1.5000    0.0000 O   0  0  0  0  0  0  0  0  0  0  0  0
    5.7665    2.5000    0.0000 O   0  0  0  0  0  0  0  0  0  0  0  0
    4.9004    0.0000    0.0000 O   0  0  0  0  0  0  0  0  0  0  0  0
    5.7998    8.1316    0.0000 N   0  0  0  0  0  0  0  0  0  0  0  0
    7.5319    7.1316    0.0000 N   0  0  0  0  0  0  0  0  0  0  0  0
    3.2018   12.6316    0.0000 N   0  0  0  0  0  0  0  0  0  0  0  0
    5.7998    7.1316    0.0000 C   0  0  0  0  0  0  0  0  0  0  0  0
    6.6659    8.6316    0.0000 C   0  0  0  0  0  0  0  0  0  0  0  0
    4.9338    8.6316    0.0000 C   0  0  0  0  0  0  0  0  0  0  0  0
    6.6659    6.6316    0.0000 C   0  0  0  0  0  0  0  0  0  0  0  0
    7.5319    8.1316    0.0000 C   0  0  0  0  0  0  0  0  0  0  0  0
    4.9338    9.6316    0.0000 C   0  0  0  0  0  0  0  0  0  0  0  0
    4.0678   10.1316    0.0000 C   0  0  0  0  0  0  0  0  0  0  0  0
    4.0678   11.1316    0.0000 C   0  0  0  0  0  0  0  0  0  0  0  0
    3.2018   11.6316    0.0000 C   0  0  0  0  0  0  0  0  0  0  0  0
    8.3979    6.6316    0.0000 C   0  0  0  0  0  0  0  0  0  0  0  0
    2.3358   13.1316    0.0000 C   0  0  0  0  0  0  0  0  0  0  0  0
    3.2018   14.6316    0.0000 C   0  0  0  0  0  0  0  0  0  0  0  0
    2.3358   14.1316    0.0000 C   0  0  0  0  0  0  0  0  0  0  0  0
    4.0678   14.1316    0.0000 C   0  0  0  0  0  0  0  0  0  0  0  0
    4.0678   13.1316    0.0000 C   0  0  0  0  0  0  0  0  0  0  0  0
    8.3979    5.6316    0.0000 C   0  0  0  0  0  0  0  0  0  0  0  0
    9.2640    7.1316    0.0000 C   0  0  0  0  0  0  0  0  0  0  0  0
    1.4418   12.5969    0.0000 C   0  0  0  0  0  0  0  0  0  0  0  0
    1.4418   14.6662    0.0000 C   0  0  0  0  0  0  0  0  0  0  0  0
    9.2640    5.1316    0.0000 C   0  0  0  0  0  0  0  0  0  0  0  0
   10.1300    6.6316    0.0000 C   0  0  0  0  0  0  0  0  0  0  0  0
    0.5357   13.1107    0.0000 C   0  0  0  0  0  0  0  0  0  0  0  0
    0.5357   14.1524    0.0000 C   0  0  0  0  0  0  0  0  0  0  0  0
   10.1300    5.6316    0.0000 C   0  0  0  0  0  0  0  0  0  0  0  0
    5.7665    1.5000    0.0000 C   0  0  0  0  0  0  0  0  0  0  0  0
    4.9004    1.0000    0.0000 C   0  0  0  0  0  0  0  0  0  0  0  0
    5.1893    7.2392    0.0000 H   0  0  0  0  0  0  0  0  0  0  0  0
    5.5878    6.5489    0.0000 H   0  0  0  0  0  0  0  0  0  0  0  0
    7.0644    9.1065    0.0000 H   0  0  0  0  0  0  0  0  0  0  0  0
    6.2674    9.1065    0.0000 H   0  0  0  0  0  0  0  0  0  0  0  0
    4.3232    8.7392    0.0000 H   0  0  0  0  0  0  0  0  0  0  0  0
    4.7218    8.0490    0.0000 H   0  0  0  0  0  0  0  0  0  0  0  0
    6.2674    6.1566    0.0000 H   0  0  0  0  0  0  0  0  0  0  0  0
    7.0644    6.1566    0.0000 H   0  0  0  0  0  0  0  0  0  0  0  0
    8.1425    8.0239    0.0000 H   0  0  0  0  0  0  0  0  0  0  0  0
    7.7440    8.7142    0.0000 H   0  0  0  0  0  0  0  0  0  0  0  0
    5.5444    9.5239    0.0000 H   0  0  0  0  0  0  0  0  0  0  0  0
    5.1459   10.2142    0.0000 H   0  0  0  0  0  0  0  0  0  0  0  0
    3.4572   10.2392    0.0000 H   0  0  0  0  0  0  0  0  0  0  0  0
    3.8557    9.5490    0.0000 H   0  0  0  0  0  0  0  0  0  0  0  0
    4.6784   11.0239    0.0000 H   0  0  0  0  0  0  0  0  0  0  0  0
    4.2798   11.7142    0.0000 H   0  0  0  0  0  0  0  0  0  0  0  0
    2.5912   11.7392    0.0000 H   0  0  0  0  0  0  0  0  0  0  0  0
    2.9897   11.0490    0.0000 H   0  0  0  0  0  0  0  0  0  0  0  0
    3.6003   15.1065    0.0000 H   0  0  0  0  0  0  0  0  0  0  0  0
    2.8032   15.1065    0.0000 H   0  0  0  0  0  0  0  0  0  0  0  0
    4.6784   14.0239    0.0000 H   0  0  0  0  0  0  0  0  0  0  0  0
    4.2798   14.7142    0.0000 H   0  0  0  0  0  0  0  0  0  0  0  0
    7.8610    5.3216    0.0000 H   0  0  0  0  0  0  0  0  0  0  0  0
    9.2640    7.7516    0.0000 H   0  0  0  0  0  0  0  0  0  0  0  0
    1.4490   11.9769    0.0000 H   0  0  0  0  0  0  0  0  0  0  0  0
    1.4490   15.2862    0.0000 H   0  0  0  0  0  0  0  0  0  0  0  0
    9.2640    4.5116    0.0000 H   0  0  0  0  0  0  0  0  0  0  0  0
   10.6669    6.9416    0.0000 H   0  0  0  0  0  0  0  0  0  0  0  0
    0.0000   12.7987    0.0000 H   0  0  0  0  0  0  0  0  0  0  0  0
    0.0000   14.4644    0.0000 H   0  0  0  0  0  0  0  0  0  0  0  0
   10.6669    5.3216    0.0000 H   0  0  0  0  0  0  0  0  0  0  0  0
    7.1694    1.3100    0.0000 H   0  0  0  0  0  0  0  0  0  0  0  0
    3.4975    1.1900    0.0000 H   0  0  0  0  0  0  0  0  0  0  0  0
  1 23  2  0  0  0  0
  2 33  1  0  0  0  0
  2 66  1  0  0  0  0
  3 34  1  0  0  0  0
  3 67  1  0  0  0  0
  4 33  2  0  0  0  0
  5 34  2  0  0  0  0
  6  9  1  0  0  0  0
  6 10  1  0  0  0  0
  6 11  1  0  0  0  0
  7 12  1  0  0  0  0
  7 13  1  0  0  0  0
  7 18  1  0  0  0  0
  8 17  1  0  0  0  0
  8 19  1  0  0  0  0
  8 23  1  0  0  0  0
  9 12  1  0  0  0  0
  9 35  1  0  0  0  0
  9 36  1  0  0  0  0
 10 13  1  0  0  0  0
 10 37  1  0  0  0  0
 10 38  1  0  0  0  0
 11 14  1  0  0  0  0
 11 39  1  0  0  0  0
 11 40  1  0  0  0  0
 12 41  1  0  0  0  0
 12 42  1  0  0  0  0
 13 43  1  0  0  0  0
 13 44  1  0  0  0  0
 14 15  1  0  0  0  0
 14 45  1  0  0  0  0
 14 46  1  0  0  0  0
 15 16  1  0  0  0  0
 15 47  1  0  0  0  0
 15 48  1  0  0  0  0
 16 17  1  0  0  0  0
 16 49  1  0  0  0  0
 16 50  1  0  0  0  0
 17 51  1  0  0  0  0
 17 52  1  0  0  0  0
 18 24  2  0  0  0  0
 18 25  1  0  0  0  0
 19 21  1  0  0  0  0
 19 26  2  0  0  0  0
 20 21  1  0  0  0  0
 20 22  1  0  0  0  0
 20 53  1  0  0  0  0
 20 54  1  0  0  0  0
 21 27  2  0  0  0  0
 22 23  1  0  0  0  0
 22 55  1  0  0  0  0
 22 56  1  0  0  0  0
 24 28  1  0  0  0  0
 24 57  1  0  0  0  0
 25 29  2  0  0  0  0
 25 58  1  0  0  0  0
 26 30  1  0  0  0  0
 26 59  1  0  0  0  0
 27 31  1  0  0  0  0
 27 60  1  0  0  0  0
 28 32  2  0  0  0  0
 28 61  1  0  0  0  0
 29 32  1  0  0  0  0
 29 62  1  0  0  0  0
 30 31  2  0  0  0  0
 30 63  1  0  0  0  0
 31 64  1  0  0  0  0
 32 65  1  0  0  0  0
 33 34  1  0  0  0  0
M  END
> <PUBCHEM_COMPOUND_CID>
168278359

> <PUBCHEM_COMPOUND_CANONICALIZED>
1

> <PUBCHEM_CACTVS_COMPLEXITY>
554

> <PUBCHEM_CACTVS_HBOND_ACCEPTOR>
7

> <PUBCHEM_CACTVS_HBOND_DONOR>
2

> <PUBCHEM_CACTVS_ROTATABLE_BOND>
8

> <PUBCHEM_CACTVS_SUBSKEYS>
AAADcfB7OAAAAAAAAAAAAAAAAAAAAAAAAAA8eIEAAAAAAACxQAAAHgAACAAADAjBmAQwyIMAAgCIAiXSWAKCAAAhAgAIiAFIZIgJYDLAkZGUIAhghgDJyAcYiYCeAAAAAAACAAAAAAAAAAQAAAAAAAAAAA==

> <PUBCHEM_IUPAC_OPENEYE_NAME>
oxalic acid;1-[5-(4-phenylpiperazin-1-yl)pentyl]-3,4-dihydroquinolin-2-one

> <PUBCHEM_IUPAC_CAS_NAME>
oxalic acid;1-[5-(4-phenyl-1-piperazinyl)pentyl]-3,4-dihydroquinolin-2-one

> <PUBCHEM_IUPAC_NAME_MARKUP>
oxalic acid;1-[5-(4-phenylpiperazin-1-yl)pentyl]-3,4-dihydroquinolin-2-one

> <PUBCHEM_IUPAC_NAME>
oxalic acid;1-[5-(4-phenylpiperazin-1-yl)pentyl]-3,4-dihydroquinolin-2-one

> <PUBCHEM_IUPAC_SYSTEMATIC_NAME>
ethanedioic acid;1-[5-(4-phenylpiperazin-1-yl)pentyl]-3,4-dihydroquinolin-2-one

> <PUBCHEM_IUPAC_TRADITIONAL_NAME>
oxalic acid;1-[5-(4-phenylpiperazino)pentyl]-3,4-dihydrocarbostyril

> <PUBCHEM_IUPAC_INCHI>
InChI=1S/C24H31N3O.C2H2O4/c28-24-14-13-21-9-5-6-12-23(21)27(24)16-8-2-7-15-25-17-19-26(20-18-25)22-10-3-1-4-11-22;3-1(4)2(5)6/h1,3-6,9-12H,2,7-8,13-20H2;(H,3,4)(H,5,6)

> <PUBCHEM_IUPAC_INCHIKEY>
UIOFLKLJBKURNS-UHFFFAOYSA-N

> <PUBCHEM_EXACT_MASS>
467.24202116

> <PUBCHEM_MOLECULAR_FORMULA>
C26H33N3O5

> <PUBCHEM_MOLECULAR_WEIGHT>
467.6

> <PUBCHEM_OPENEYE_CAN_SMILES>
C1CC(=O)N(C2=CC=CC=C21)CCCCCN3CCN(CC3)C4=CC=CC=C4.C(=O)(C(=O)O)O

> <PUBCHEM_OPENEYE_ISO_SMILES>
C1CC(=O)N(C2=CC=CC=C21)CCCCCN3CCN(CC3)C4=CC=CC=C4.C(=O)(C(=O)O)O

> <PUBCHEM_CACTVS_TPSA>
101

> <PUBCHEM_MONOISOTOPIC_WEIGHT>
467.24202116

> <PUBCHEM_TOTAL_CHARGE>
0

> <PUBCHEM_HEAVY_ATOM_COUNT>
34

> <PUBCHEM_ATOM_DEF_STEREO_COUNT>
0

> <PUBCHEM_ATOM_UDEF_STEREO_COUNT>
0

> <PUBCHEM_BOND_DEF_STEREO_COUNT>
0

> <PUBCHEM_BOND_UDEF_STEREO_COUNT>
0

> <PUBCHEM_ISOTOPIC_ATOM_COUNT>
0

> <PUBCHEM_COMPONENT_COUNT>
2

> <PUBCHEM_CACTVS_TAUTO_COUNT>
-1

> <PUBCHEM_COORDINATE_TYPE>
1
5
255

> <PUBCHEM_BONDANNOTATIONS>
18  24  8
18  25  8
19  21  8
19  26  8
21  27  8
24  28  8
25  29  8
26  30  8
27  31  8
28  32  8
29  32  8
30  31  8

$$$$
