11569488
  -OEChem-09292322482D

 71 75  0     0  0  0  0  0  0999 V2000
    6.4103   -6.7196    0.0000 O   0  0  0  0  0  0  0  0  0  0  0  0
   13.0738    6.9148    0.0000 O   0  0  0  0  0  0  0  0  0  0  0  0
    2.8660   -4.9148    0.0000 O   0  0  0  0  0  0  0  0  0  0  0  0
   11.8777    0.4674    0.0000 O   0  0  0  0  0  0  0  0  0  0  0  0
    7.3423   -2.2585    0.0000 N   0  0  0  0  0  0  0  0  0  0  0  0
    6.7210   -4.1596    0.0000 N   0  0  0  0  0  0  0  0  0  0  0  0
    6.9939   -5.9148    0.0000 N   0  0  0  0  0  0  0  0  0  0  0  0
   12.4525    5.0138    0.0000 N   0  0  0  0  0  0  0  0  0  0  0  0
   10.2313    1.0055    0.0000 N   0  0  0  0  0  0  0  0  0  0  0  0
    6.3638   -2.4647    0.0000 C   0  0  0  0  0  0  0  0  0  0  0  0
    8.0102   -3.0028    0.0000 C   0  0  0  0  0  0  0  0  0  0  0  0
    6.0531   -3.4153    0.0000 C   0  0  0  0  0  0  0  0  0  0  0  0
    7.6995   -3.9533    0.0000 C   0  0  0  0  0  0  0  0  0  0  0  0
    7.6530   -1.3080    0.0000 C   0  0  0  0  0  0  0  0  0  0  0  0
    8.6315   -1.1018    0.0000 C   0  0  0  0  0  0  0  0  0  0  0  0
    6.4103   -5.1101    0.0000 C   0  0  0  0  0  0  0  0  0  0  0  0
    8.9421   -0.1513    0.0000 C   0  0  0  0  0  0  0  0  0  0  0  0
    5.4641   -5.4148    0.0000 C   0  0  0  0  0  0  0  0  0  0  0  0
    9.9206    0.0550    0.0000 C   0  0  0  0  0  0  0  0  0  0  0  0
    5.4641   -6.4148    0.0000 C   0  0  0  0  0  0  0  0  0  0  0  0
    4.5981   -4.9148    0.0000 C   0  0  0  0  0  0  0  0  0  0  0  0
   13.4310    5.2200    0.0000 C   0  0  0  0  0  0  0  0  0  0  0  0
   11.7846    5.7581    0.0000 C   0  0  0  0  0  0  0  0  0  0  0  0
   12.1418    4.0633    0.0000 C   0  0  0  0  0  0  0  0  0  0  0  0
   13.7416    6.1705    0.0000 C   0  0  0  0  0  0  0  0  0  0  0  0
   12.0953    6.7086    0.0000 C   0  0  0  0  0  0  0  0  0  0  0  0
    4.5981   -6.9148    0.0000 C   0  0  0  0  0  0  0  0  0  0  0  0
    3.7320   -5.4148    0.0000 C   0  0  0  0  0  0  0  0  0  0  0  0
   11.2098    1.2117    0.0000 C   0  0  0  0  0  0  0  0  0  0  0  0
    3.7320   -6.4148    0.0000 C   0  0  0  0  0  0  0  0  0  0  0  0
   11.5205    2.1622    0.0000 C   0  0  0  0  0  0  0  0  0  0  0  0
   11.1633    3.8570    0.0000 C   0  0  0  0  0  0  0  0  0  0  0  0
   12.8096    3.3190    0.0000 C   0  0  0  0  0  0  0  0  0  0  0  0
   10.8526    2.9065    0.0000 C   0  0  0  0  0  0  0  0  0  0  0  0
   12.4990    2.3684    0.0000 C   0  0  0  0  0  0  0  0  0  0  0  0
    2.0000   -5.4148    0.0000 C   0  0  0  0  0  0  0  0  0  0  0  0
    6.3432   -1.8451    0.0000 H   0  0  0  0  0  0  0  0  0  0  0  0
    5.7500   -2.3774    0.0000 H   0  0  0  0  0  0  0  0  0  0  0  0
    8.5571   -3.2948    0.0000 H   0  0  0  0  0  0  0  0  0  0  0  0
    8.3927   -2.5149    0.0000 H   0  0  0  0  0  0  0  0  0  0  0  0
    5.5062   -3.1232    0.0000 H   0  0  0  0  0  0  0  0  0  0  0  0
    5.6706   -3.9032    0.0000 H   0  0  0  0  0  0  0  0  0  0  0  0
    7.7201   -4.5730    0.0000 H   0  0  0  0  0  0  0  0  0  0  0  0
    8.3133   -4.0407    0.0000 H   0  0  0  0  0  0  0  0  0  0  0  0
    7.6324   -0.6883    0.0000 H   0  0  0  0  0  0  0  0  0  0  0  0
    7.0392   -1.2206    0.0000 H   0  0  0  0  0  0  0  0  0  0  0  0
    8.6520   -1.7214    0.0000 H   0  0  0  0  0  0  0  0  0  0  0  0
    9.2453   -1.1891    0.0000 H   0  0  0  0  0  0  0  0  0  0  0  0
    8.9216    0.4684    0.0000 H   0  0  0  0  0  0  0  0  0  0  0  0
    8.3283   -0.0639    0.0000 H   0  0  0  0  0  0  0  0  0  0  0  0
    9.9412   -0.5647    0.0000 H   0  0  0  0  0  0  0  0  0  0  0  0
   10.5345   -0.0324    0.0000 H   0  0  0  0  0  0  0  0  0  0  0  0
    4.5981   -4.2948    0.0000 H   0  0  0  0  0  0  0  0  0  0  0  0
    9.8172    1.4669    0.0000 H   0  0  0  0  0  0  0  0  0  0  0  0
   13.4515    4.6003    0.0000 H   0  0  0  0  0  0  0  0  0  0  0  0
   14.0448    5.1326    0.0000 H   0  0  0  0  0  0  0  0  0  0  0  0
   11.2377    6.0501    0.0000 H   0  0  0  0  0  0  0  0  0  0  0  0
   11.4021    5.2702    0.0000 H   0  0  0  0  0  0  0  0  0  0  0  0
   14.2886    5.8785    0.0000 H   0  0  0  0  0  0  0  0  0  0  0  0
   14.1242    6.6584    0.0000 H   0  0  0  0  0  0  0  0  0  0  0  0
   12.0747    7.3283    0.0000 H   0  0  0  0  0  0  0  0  0  0  0  0
   11.4815    6.7960    0.0000 H   0  0  0  0  0  0  0  0  0  0  0  0
    4.5981   -7.5348    0.0000 H   0  0  0  0  0  0  0  0  0  0  0  0
    3.1951   -6.7248    0.0000 H   0  0  0  0  0  0  0  0  0  0  0  0
   10.7492    4.3185    0.0000 H   0  0  0  0  0  0  0  0  0  0  0  0
   13.4163    3.4468    0.0000 H   0  0  0  0  0  0  0  0  0  0  0  0
   10.2460    2.7787    0.0000 H   0  0  0  0  0  0  0  0  0  0  0  0
   12.9130    1.9070    0.0000 H   0  0  0  0  0  0  0  0  0  0  0  0
    1.6900   -4.8779    0.0000 H   0  0  0  0  0  0  0  0  0  0  0  0
    1.4631   -5.7248    0.0000 H   0  0  0  0  0  0  0  0  0  0  0  0
    2.3100   -5.9518    0.0000 H   0  0  0  0  0  0  0  0  0  0  0  0
  1  7  1  0  0  0  0
  1 20  1  0  0  0  0
  2 25  1  0  0  0  0
  2 26  1  0  0  0  0
  3 28  1  0  0  0  0
  3 36  1  0  0  0  0
  4 29  2  0  0  0  0
  5 10  1  0  0  0  0
  5 11  1  0  0  0  0
  5 14  1  0  0  0  0
  6 12  1  0  0  0  0
  6 13  1  0  0  0  0
  6 16  1  0  0  0  0
  7 16  2  0  0  0  0
  8 22  1  0  0  0  0
  8 23  1  0  0  0  0
  8 24  1  0  0  0  0
  9 19  1  0  0  0  0
  9 29  1  0  0  0  0
  9 54  1  0  0  0  0
 10 12  1  0  0  0  0
 10 37  1  0  0  0  0
 10 38  1  0  0  0  0
 11 13  1  0  0  0  0
 11 39  1  0  0  0  0
 11 40  1  0  0  0  0
 12 41  1  0  0  0  0
 12 42  1  0  0  0  0
 13 43  1  0  0  0  0
 13 44  1  0  0  0  0
 14 15  1  0  0  0  0
 14 45  1  0  0  0  0
 14 46  1  0  0  0  0
 15 17  1  0  0  0  0
 15 47  1  0  0  0  0
 15 48  1  0  0  0  0
 16 18  1  0  0  0  0
 17 19  1  0  0  0  0
 17 49  1  0  0  0  0
 17 50  1  0  0  0  0
 18 20  2  0  0  0  0
 18 21  1  0  0  0  0
 19 51  1  0  0  0  0
 19 52  1  0  0  0  0
 20 27  1  0  0  0  0
 21 28  2  0  0  0  0
 21 53  1  0  0  0  0
 22 25  1  0  0  0  0
 22 55  1  0  0  0  0
 22 56  1  0  0  0  0
 23 26  1  0  0  0  0
 23 57  1  0  0  0  0
 23 58  1  0  0  0  0
 24 32  2  0  0  0  0
 24 33  1  0  0  0  0
 25 59  1  0  0  0  0
 25 60  1  0  0  0  0
 26 61  1  0  0  0  0
 26 62  1  0  0  0  0
 27 30  2  0  0  0  0
 27 63  1  0  0  0  0
 28 30  1  0  0  0  0
 29 31  1  0  0  0  0
 30 64  1  0  0  0  0
 31 34  2  0  0  0  0
 31 35  1  0  0  0  0
 32 34  1  0  0  0  0
 32 65  1  0  0  0  0
 33 35  2  0  0  0  0
 33 66  1  0  0  0  0
 34 67  1  0  0  0  0
 35 68  1  0  0  0  0
 36 69  1  0  0  0  0
 36 70  1  0  0  0  0
 36 71  1  0  0  0  0
M  END
> <PUBCHEM_COMPOUND_CID>
11569488

> <PUBCHEM_COMPOUND_CANONICALIZED>
1

> <PUBCHEM_CACTVS_COMPLEXITY>
677

> <PUBCHEM_CACTVS_HBOND_ACCEPTOR>
8

> <PUBCHEM_CACTVS_HBOND_DONOR>
1

> <PUBCHEM_CACTVS_ROTATABLE_BOND>
9

> <PUBCHEM_CACTVS_SUBSKEYS>
AAADcfB7uAAAAAAAAAAAAAAAAAAAAWAAAAA8eIEAAAAAAFgB9AAAHgAUAAAADAzhmgYz9tPQBACpAqdycgCCCAAlIgApmKEubNqOZrrEvZuXMahm1hvY6cf6yTCeCQABAAAIAAASAAIAABAAAAAAAAAAAA==

> <PUBCHEM_IUPAC_OPENEYE_NAME>
N-[4-[4-(5-methoxy-1,2-benzoxazol-3-yl)piperazin-1-yl]butyl]-4-morpholino-benzamide

> <PUBCHEM_IUPAC_CAS_NAME>
N-[4-[4-(5-methoxy-1,2-benzoxazol-3-yl)-1-piperazinyl]butyl]-4-(4-morpholinyl)benzamide

> <PUBCHEM_IUPAC_NAME_MARKUP>
<I>N</I>-[4-[4-(5-methoxy-1,2-benzoxazol-3-yl)piperazin-1-yl]butyl]-4-morpholin-4-ylbenzamide

> <PUBCHEM_IUPAC_NAME>
N-[4-[4-(5-methoxy-1,2-benzoxazol-3-yl)piperazin-1-yl]butyl]-4-morpholin-4-ylbenzamide

> <PUBCHEM_IUPAC_SYSTEMATIC_NAME>
N-[4-[4-(5-methoxy-1,2-benzoxazol-3-yl)piperazin-1-yl]butyl]-4-morpholin-4-yl-benzamide

> <PUBCHEM_IUPAC_TRADITIONAL_NAME>
N-[4-[4-(5-methoxyindoxazen-3-yl)piperazino]butyl]-4-morpholino-benzamide

> <PUBCHEM_IUPAC_INCHI>
InChI=1S/C27H35N5O4/c1-34-23-8-9-25-24(20-23)26(29-36-25)32-14-12-30(13-15-32)11-3-2-10-28-27(33)21-4-6-22(7-5-21)31-16-18-35-19-17-31/h4-9,20H,2-3,10-19H2,1H3,(H,28,33)

> <PUBCHEM_IUPAC_INCHIKEY>
DTUIKCYPLPUCPC-UHFFFAOYSA-N

> <PUBCHEM_XLOGP3_AA>
3.4

> <PUBCHEM_EXACT_MASS>
493.26890461

> <PUBCHEM_MOLECULAR_FORMULA>
C27H35N5O4

> <PUBCHEM_MOLECULAR_WEIGHT>
493.6

> <PUBCHEM_OPENEYE_CAN_SMILES>
COC1=CC2=C(C=C1)ON=C2N3CCN(CC3)CCCCNC(=O)C4=CC=C(C=C4)N5CCOCC5

> <PUBCHEM_OPENEYE_ISO_SMILES>
COC1=CC2=C(C=C1)ON=C2N3CCN(CC3)CCCCNC(=O)C4=CC=C(C=C4)N5CCOCC5

> <PUBCHEM_CACTVS_TPSA>
83.3

> <PUBCHEM_MONOISOTOPIC_WEIGHT>
493.26890461

> <PUBCHEM_TOTAL_CHARGE>
0

> <PUBCHEM_HEAVY_ATOM_COUNT>
36

> <PUBCHEM_ATOM_DEF_STEREO_COUNT>
0

> <PUBCHEM_ATOM_UDEF_STEREO_COUNT>
0

> <PUBCHEM_BOND_DEF_STEREO_COUNT>
0

> <PUBCHEM_BOND_UDEF_STEREO_COUNT>
0

> <PUBCHEM_ISOTOPIC_ATOM_COUNT>
0

> <PUBCHEM_COMPONENT_COUNT>
1

> <PUBCHEM_CACTVS_TAUTO_COUNT>
-1

> <PUBCHEM_COORDINATE_TYPE>
1
5
255

> <PUBCHEM_BONDANNOTATIONS>
1  20  8
1  7  8
16  18  8
18  20  8
18  21  8
20  27  8
21  28  8
24  32  8
24  33  8
27  30  8
28  30  8
31  34  8
31  35  8
32  34  8
33  35  8
7  16  8

$$$$
