25069243
  -OEChem-09292322302D

 60 64  0     0  0  0  0  0  0999 V2000
    3.6030   -1.6593    0.0000 F   0  0  0  0  0  0  0  0  0  0  0  0
    5.3351   -2.6593    0.0000 O   0  0  0  0  0  0  0  0  0  0  0  0
    4.0617   -6.3754    0.0000 O   0  0  0  0  0  0  0  0  0  0  0  0
    7.0671    1.3407    0.0000 N   0  0  0  0  0  0  0  0  0  0  0  0
    7.0671    3.3407    0.0000 N   0  0  0  0  0  0  0  0  0  0  0  0
    2.4051   -5.7341    0.0000 N   0  0  0  0  0  0  0  0  0  0  0  0
    7.9332    1.8407    0.0000 C   0  0  0  0  0  0  0  0  0  0  0  0
    6.2011    1.8407    0.0000 C   0  0  0  0  0  0  0  0  0  0  0  0
    7.9332    2.8407    0.0000 C   0  0  0  0  0  0  0  0  0  0  0  0
    6.2011    2.8407    0.0000 C   0  0  0  0  0  0  0  0  0  0  0  0
    7.0671    0.3407    0.0000 C   0  0  0  0  0  0  0  0  0  0  0  0
    6.2011   -0.1593    0.0000 C   0  0  0  0  0  0  0  0  0  0  0  0
    7.0671    4.3407    0.0000 C   0  0  0  0  0  0  0  0  0  0  0  0
    6.2011   -1.1593    0.0000 C   0  0  0  0  0  0  0  0  0  0  0  0
    7.9332    4.8407    0.0000 C   0  0  0  0  0  0  0  0  0  0  0  0
    6.2011    4.8407    0.0000 C   0  0  0  0  0  0  0  0  0  0  0  0
    5.3351   -1.6593    0.0000 C   0  0  0  0  0  0  0  0  0  0  0  0
    7.9332    5.8407    0.0000 C   0  0  0  0  0  0  0  0  0  0  0  0
    8.8271    4.3061    0.0000 C   0  0  0  0  0  0  0  0  0  0  0  0
    6.2011    5.8407    0.0000 C   0  0  0  0  0  0  0  0  0  0  0  0
    7.0671    6.3407    0.0000 C   0  0  0  0  0  0  0  0  0  0  0  0
    8.8271    6.3754    0.0000 C   0  0  0  0  0  0  0  0  0  0  0  0
    9.7332    4.8199    0.0000 C   0  0  0  0  0  0  0  0  0  0  0  0
    4.4691   -3.1593    0.0000 C   0  0  0  0  0  0  0  0  0  0  0  0
    2.7370   -4.1593    0.0000 C   0  0  0  0  0  0  0  0  0  0  0  0
    3.6030   -4.6593    0.0000 C   0  0  0  0  0  0  0  0  0  0  0  0
    9.7332    5.8615    0.0000 C   0  0  0  0  0  0  0  0  0  0  0  0
    2.0000   -4.8264    0.0000 C   0  0  0  0  0  0  0  0  0  0  0  0
    4.4691   -4.1593    0.0000 C   0  0  0  0  0  0  0  0  0  0  0  0
    3.6030   -2.6593    0.0000 C   0  0  0  0  0  0  0  0  0  0  0  0
    2.7370   -3.1593    0.0000 C   0  0  0  0  0  0  0  0  0  0  0  0
    3.3938   -5.6311    0.0000 C   0  0  0  0  0  0  0  0  0  0  0  0
    8.1452    1.2581    0.0000 H   0  0  0  0  0  0  0  0  0  0  0  0
    8.5438    1.9484    0.0000 H   0  0  0  0  0  0  0  0  0  0  0  0
    5.5905    1.9484    0.0000 H   0  0  0  0  0  0  0  0  0  0  0  0
    5.9891    1.2581    0.0000 H   0  0  0  0  0  0  0  0  0  0  0  0
    8.5438    2.7331    0.0000 H   0  0  0  0  0  0  0  0  0  0  0  0
    8.1452    3.4233    0.0000 H   0  0  0  0  0  0  0  0  0  0  0  0
    5.9891    3.4233    0.0000 H   0  0  0  0  0  0  0  0  0  0  0  0
    5.5905    2.7331    0.0000 H   0  0  0  0  0  0  0  0  0  0  0  0
    7.2792   -0.2419    0.0000 H   0  0  0  0  0  0  0  0  0  0  0  0
    7.6777    0.4484    0.0000 H   0  0  0  0  0  0  0  0  0  0  0  0
    5.9891    0.4233    0.0000 H   0  0  0  0  0  0  0  0  0  0  0  0
    5.5905   -0.2669    0.0000 H   0  0  0  0  0  0  0  0  0  0  0  0
    6.4132   -1.7419    0.0000 H   0  0  0  0  0  0  0  0  0  0  0  0
    6.8117   -1.0516    0.0000 H   0  0  0  0  0  0  0  0  0  0  0  0
    5.6642    4.5307    0.0000 H   0  0  0  0  0  0  0  0  0  0  0  0
    5.1230   -1.0767    0.0000 H   0  0  0  0  0  0  0  0  0  0  0  0
    4.7245   -1.7669    0.0000 H   0  0  0  0  0  0  0  0  0  0  0  0
    8.8199    3.6861    0.0000 H   0  0  0  0  0  0  0  0  0  0  0  0
    5.6642    6.1507    0.0000 H   0  0  0  0  0  0  0  0  0  0  0  0
    7.0671    6.9607    0.0000 H   0  0  0  0  0  0  0  0  0  0  0  0
    8.8199    6.9954    0.0000 H   0  0  0  0  0  0  0  0  0  0  0  0
   10.2689    4.5078    0.0000 H   0  0  0  0  0  0  0  0  0  0  0  0
   10.2689    6.1736    0.0000 H   0  0  0  0  0  0  0  0  0  0  0  0
    1.6346   -4.3255    0.0000 H   0  0  0  0  0  0  0  0  0  0  0  0
    1.4635   -5.1371    0.0000 H   0  0  0  0  0  0  0  0  0  0  0  0
    5.0060   -4.4693    0.0000 H   0  0  0  0  0  0  0  0  0  0  0  0
    2.2001   -2.8493    0.0000 H   0  0  0  0  0  0  0  0  0  0  0  0
    2.0951   -6.2711    0.0000 H   0  0  0  0  0  0  0  0  0  0  0  0
  1 30  1  0  0  0  0
  2 17  1  0  0  0  0
  2 24  1  0  0  0  0
  3 32  2  0  0  0  0
  4  7  1  0  0  0  0
  4  8  1  0  0  0  0
  4 11  1  0  0  0  0
  5  9  1  0  0  0  0
  5 10  1  0  0  0  0
  5 13  1  0  0  0  0
  6 28  1  0  0  0  0
  6 32  1  0  0  0  0
  6 60  1  0  0  0  0
  7  9  1  0  0  0  0
  7 33  1  0  0  0  0
  7 34  1  0  0  0  0
  8 10  1  0  0  0  0
  8 35  1  0  0  0  0
  8 36  1  0  0  0  0
  9 37  1  0  0  0  0
  9 38  1  0  0  0  0
 10 39  1  0  0  0  0
 10 40  1  0  0  0  0
 11 12  1  0  0  0  0
 11 41  1  0  0  0  0
 11 42  1  0  0  0  0
 12 14  1  0  0  0  0
 12 43  1  0  0  0  0
 12 44  1  0  0  0  0
 13 15  1  0  0  0  0
 13 16  2  0  0  0  0
 14 17  1  0  0  0  0
 14 45  1  0  0  0  0
 14 46  1  0  0  0  0
 15 18  1  0  0  0  0
 15 19  2  0  0  0  0
 16 20  1  0  0  0  0
 16 47  1  0  0  0  0
 17 48  1  0  0  0  0
 17 49  1  0  0  0  0
 18 21  1  0  0  0  0
 18 22  2  0  0  0  0
 19 23  1  0  0  0  0
 19 50  1  0  0  0  0
 20 21  2  0  0  0  0
 20 51  1  0  0  0  0
 21 52  1  0  0  0  0
 22 27  1  0  0  0  0
 22 53  1  0  0  0  0
 23 27  2  0  0  0  0
 23 54  1  0  0  0  0
 24 29  1  0  0  0  0
 24 30  2  0  0  0  0
 25 26  1  0  0  0  0
 25 28  1  0  0  0  0
 25 31  2  0  0  0  0
 26 29  2  0  0  0  0
 26 32  1  0  0  0  0
 27 55  1  0  0  0  0
 28 56  1  0  0  0  0
 28 57  1  0  0  0  0
 29 58  1  0  0  0  0
 30 31  1  0  0  0  0
 31 59  1  0  0  0  0
M  END
> <PUBCHEM_COMPOUND_CID>
25069243

> <PUBCHEM_COMPOUND_CANONICALIZED>
1

> <PUBCHEM_CACTVS_COMPLEXITY>
626

> <PUBCHEM_CACTVS_HBOND_ACCEPTOR>
5

> <PUBCHEM_CACTVS_HBOND_DONOR>
1

> <PUBCHEM_CACTVS_ROTATABLE_BOND>
7

> <PUBCHEM_CACTVS_SUBSKEYS>
AAADceB7MQAAAAAAAAAAAAAAAAAAAWAAAAA8YMEAAAAAAFjBVAAAHwAQAAAADAzhmA4wxsPABACIAiVSUACCCAAlIgAIiIEObMgMZjLEtZuWOSjkxhHI6Ye+2JKOoAABQAASAABAAAKAACQAAAAAAAAAAA==

> <PUBCHEM_IUPAC_OPENEYE_NAME>
5-fluoro-6-[4-[4-(1-naphthyl)piperazin-1-yl]butoxy]isoindolin-1-one

> <PUBCHEM_IUPAC_CAS_NAME>
5-fluoro-6-[4-[4-(1-naphthalenyl)-1-piperazinyl]butoxy]-2,3-dihydroisoindol-1-one

> <PUBCHEM_IUPAC_NAME_MARKUP>
5-fluoro-6-[4-(4-naphthalen-1-ylpiperazin-1-yl)butoxy]-2,3-dihydroisoindol-1-one

> <PUBCHEM_IUPAC_NAME>
5-fluoro-6-[4-(4-naphthalen-1-ylpiperazin-1-yl)butoxy]-2,3-dihydroisoindol-1-one

> <PUBCHEM_IUPAC_SYSTEMATIC_NAME>
5-fluoranyl-6-[4-(4-naphthalen-1-ylpiperazin-1-yl)butoxy]-2,3-dihydroisoindol-1-one

> <PUBCHEM_IUPAC_TRADITIONAL_NAME>
5-fluoro-6-[4-[4-(1-naphthyl)piperazino]butoxy]isoindolin-1-one

> <PUBCHEM_IUPAC_INCHI>
InChI=1S/C26H28FN3O2/c27-23-16-20-18-28-26(31)22(20)17-25(23)32-15-4-3-10-29-11-13-30(14-12-29)24-9-5-7-19-6-1-2-8-21(19)24/h1-2,5-9,16-17H,3-4,10-15,18H2,(H,28,31)

> <PUBCHEM_IUPAC_INCHIKEY>
SROBMKRRHVLVHU-UHFFFAOYSA-N

> <PUBCHEM_XLOGP3_AA>
4.4

> <PUBCHEM_EXACT_MASS>
433.21655531

> <PUBCHEM_MOLECULAR_FORMULA>
C26H28FN3O2

> <PUBCHEM_MOLECULAR_WEIGHT>
433.5

> <PUBCHEM_OPENEYE_CAN_SMILES>
C1CN(CCN1CCCCOC2=C(C=C3CNC(=O)C3=C2)F)C4=CC=CC5=CC=CC=C54

> <PUBCHEM_OPENEYE_ISO_SMILES>
C1CN(CCN1CCCCOC2=C(C=C3CNC(=O)C3=C2)F)C4=CC=CC5=CC=CC=C54

> <PUBCHEM_CACTVS_TPSA>
44.8

> <PUBCHEM_MONOISOTOPIC_WEIGHT>
433.21655531

> <PUBCHEM_TOTAL_CHARGE>
0

> <PUBCHEM_HEAVY_ATOM_COUNT>
32

> <PUBCHEM_ATOM_DEF_STEREO_COUNT>
0

> <PUBCHEM_ATOM_UDEF_STEREO_COUNT>
0

> <PUBCHEM_BOND_DEF_STEREO_COUNT>
0

> <PUBCHEM_BOND_UDEF_STEREO_COUNT>
0

> <PUBCHEM_ISOTOPIC_ATOM_COUNT>
0

> <PUBCHEM_COMPONENT_COUNT>
1

> <PUBCHEM_CACTVS_TAUTO_COUNT>
-1

> <PUBCHEM_COORDINATE_TYPE>
1
5
255

> <PUBCHEM_BONDANNOTATIONS>
13  15  8
13  16  8
15  18  8
15  19  8
16  20  8
18  21  8
18  22  8
19  23  8
20  21  8
22  27  8
23  27  8
24  29  8
24  30  8
25  26  8
25  31  8
26  29  8
30  31  8

$$$$
