90645308
  -OEChem-09292321592D

 70 73  0     0  0  0  0  0  0999 V2000
   19.1279   -2.4074    0.0000 Cl  0  0  0  0  0  0  0  0  0  0  0  0
    2.0000    2.0567    0.0000 Cl  0  0  0  0  0  0  0  0  0  0  0  0
    5.5443    0.2520    0.0000 S   0  0  0  0  0  0  0  0  0  0  0  0
    7.6279    1.9227    0.0000 O   0  0  0  0  0  0  0  0  0  0  0  0
    2.0000    0.0567    0.0000 O   0  0  0  0  0  0  0  0  0  0  0  0
   13.1279   -2.4074    0.0000 N   0  0  0  0  0  0  0  0  0  0  0  0
    7.6279    0.1907    0.0000 N   0  0  0  0  0  0  0  0  0  0  0  0
    5.8550    2.8120    0.0000 N   0  0  0  0  0  0  0  0  0  0  0  0
    3.7320    0.0567    0.0000 N   0  0  0  0  0  0  0  0  0  0  0  0
   15.1279   -2.4074    0.0000 C   0  0  0  0  0  0  0  0  0  0  0  0
   14.6279   -3.2734    0.0000 C   0  0  0  0  0  0  0  0  0  0  0  0
   14.6279   -1.5414    0.0000 C   0  0  0  0  0  0  0  0  0  0  0  0
   13.6279   -3.2734    0.0000 C   0  0  0  0  0  0  0  0  0  0  0  0
   13.6279   -1.5414    0.0000 C   0  0  0  0  0  0  0  0  0  0  0  0
   12.1279   -2.4074    0.0000 C   0  0  0  0  0  0  0  0  0  0  0  0
   16.1279   -2.4074    0.0000 C   0  0  0  0  0  0  0  0  0  0  0  0
   11.6279   -1.5414    0.0000 C   0  0  0  0  0  0  0  0  0  0  0  0
   10.6279   -1.5414    0.0000 C   0  0  0  0  0  0  0  0  0  0  0  0
   10.1279   -0.6753    0.0000 C   0  0  0  0  0  0  0  0  0  0  0  0
   16.6279   -3.2734    0.0000 C   0  0  0  0  0  0  0  0  0  0  0  0
   16.6279   -1.5414    0.0000 C   0  0  0  0  0  0  0  0  0  0  0  0
    9.1279   -0.6753    0.0000 C   0  0  0  0  0  0  0  0  0  0  0  0
   17.6279   -3.2734    0.0000 C   0  0  0  0  0  0  0  0  0  0  0  0
   17.6279   -1.5414    0.0000 C   0  0  0  0  0  0  0  0  0  0  0  0
    8.6279    0.1907    0.0000 C   0  0  0  0  0  0  0  0  0  0  0  0
   18.1279   -2.4074    0.0000 C   0  0  0  0  0  0  0  0  0  0  0  0
    7.1279    1.0567    0.0000 C   0  0  0  0  0  0  0  0  0  0  0  0
    6.1279    1.0567    0.0000 C   0  0  0  0  0  0  0  0  0  0  0  0
    5.5443    1.8614    0.0000 C   0  0  0  0  0  0  0  0  0  0  0  0
    4.5981    1.5567    0.0000 C   0  0  0  0  0  0  0  0  0  0  0  0
    4.5981    0.5567    0.0000 C   0  0  0  0  0  0  0  0  0  0  0  0
    3.7320    2.0567    0.0000 C   0  0  0  0  0  0  0  0  0  0  0  0
    2.8660    1.5567    0.0000 C   0  0  0  0  0  0  0  0  0  0  0  0
    3.7320    3.0567    0.0000 C   0  0  0  0  0  0  0  0  0  0  0  0
    2.8660    0.5567    0.0000 C   0  0  0  0  0  0  0  0  0  0  0  0
    2.0000   -0.9433    0.0000 C   0  0  0  0  0  0  0  0  0  0  0  0
   15.4379   -1.8705    0.0000 H   0  0  0  0  0  0  0  0  0  0  0  0
   14.5202   -3.8840    0.0000 H   0  0  0  0  0  0  0  0  0  0  0  0
   15.2105   -3.4855    0.0000 H   0  0  0  0  0  0  0  0  0  0  0  0
   15.2105   -1.3293    0.0000 H   0  0  0  0  0  0  0  0  0  0  0  0
   14.5202   -0.9308    0.0000 H   0  0  0  0  0  0  0  0  0  0  0  0
   13.0453   -3.4855    0.0000 H   0  0  0  0  0  0  0  0  0  0  0  0
   13.7356   -3.8840    0.0000 H   0  0  0  0  0  0  0  0  0  0  0  0
   13.7356   -0.9308    0.0000 H   0  0  0  0  0  0  0  0  0  0  0  0
   13.0453   -1.3293    0.0000 H   0  0  0  0  0  0  0  0  0  0  0  0
   11.5453   -2.6194    0.0000 H   0  0  0  0  0  0  0  0  0  0  0  0
   12.2356   -3.0180    0.0000 H   0  0  0  0  0  0  0  0  0  0  0  0
   12.2105   -1.3293    0.0000 H   0  0  0  0  0  0  0  0  0  0  0  0
   11.5202   -0.9308    0.0000 H   0  0  0  0  0  0  0  0  0  0  0  0
   10.0453   -1.7534    0.0000 H   0  0  0  0  0  0  0  0  0  0  0  0
   10.7356   -2.1519    0.0000 H   0  0  0  0  0  0  0  0  0  0  0  0
   10.7105   -0.4633    0.0000 H   0  0  0  0  0  0  0  0  0  0  0  0
   10.0202   -0.0648    0.0000 H   0  0  0  0  0  0  0  0  0  0  0  0
   16.3179   -3.8104    0.0000 H   0  0  0  0  0  0  0  0  0  0  0  0
   16.3179   -1.0044    0.0000 H   0  0  0  0  0  0  0  0  0  0  0  0
    8.5453   -0.8874    0.0000 H   0  0  0  0  0  0  0  0  0  0  0  0
    9.2356   -1.2859    0.0000 H   0  0  0  0  0  0  0  0  0  0  0  0
   17.9379   -3.8104    0.0000 H   0  0  0  0  0  0  0  0  0  0  0  0
   17.9379   -1.0044    0.0000 H   0  0  0  0  0  0  0  0  0  0  0  0
    9.2105    0.4027    0.0000 H   0  0  0  0  0  0  0  0  0  0  0  0
    8.5202    0.8013    0.0000 H   0  0  0  0  0  0  0  0  0  0  0  0
    7.3179   -0.3463    0.0000 H   0  0  0  0  0  0  0  0  0  0  0  0
    4.3520    3.0567    0.0000 H   0  0  0  0  0  0  0  0  0  0  0  0
    3.7320    3.6767    0.0000 H   0  0  0  0  0  0  0  0  0  0  0  0
    3.1120    3.0567    0.0000 H   0  0  0  0  0  0  0  0  0  0  0  0
    6.4616    2.9398    0.0000 H   0  0  0  0  0  0  0  0  0  0  0  0
    5.4409    3.2734    0.0000 H   0  0  0  0  0  0  0  0  0  0  0  0
    1.3800   -0.9433    0.0000 H   0  0  0  0  0  0  0  0  0  0  0  0
    2.0000   -1.5633    0.0000 H   0  0  0  0  0  0  0  0  0  0  0  0
    2.6200   -0.9433    0.0000 H   0  0  0  0  0  0  0  0  0  0  0  0
  1 26  1  0  0  0  0
  2 33  1  0  0  0  0
  3 28  1  0  0  0  0
  3 31  1  0  0  0  0
  4 27  2  0  0  0  0
  5 35  1  0  0  0  0
  5 36  1  0  0  0  0
  6 13  1  0  0  0  0
  6 14  1  0  0  0  0
  6 15  1  0  0  0  0
  7 25  1  0  0  0  0
  7 27  1  0  0  0  0
  7 62  1  0  0  0  0
  8 29  1  0  0  0  0
  8 66  1  0  0  0  0
  8 67  1  0  0  0  0
  9 31  2  0  0  0  0
  9 35  1  0  0  0  0
 10 11  1  0  0  0  0
 10 12  1  0  0  0  0
 10 16  1  0  0  0  0
 10 37  1  0  0  0  0
 11 13  1  0  0  0  0
 11 38  1  0  0  0  0
 11 39  1  0  0  0  0
 12 14  1  0  0  0  0
 12 40  1  0  0  0  0
 12 41  1  0  0  0  0
 13 42  1  0  0  0  0
 13 43  1  0  0  0  0
 14 44  1  0  0  0  0
 14 45  1  0  0  0  0
 15 17  1  0  0  0  0
 15 46  1  0  0  0  0
 15 47  1  0  0  0  0
 16 20  2  0  0  0  0
 16 21  1  0  0  0  0
 17 18  1  0  0  0  0
 17 48  1  0  0  0  0
 17 49  1  0  0  0  0
 18 19  1  0  0  0  0
 18 50  1  0  0  0  0
 18 51  1  0  0  0  0
 19 22  1  0  0  0  0
 19 52  1  0  0  0  0
 19 53  1  0  0  0  0
 20 23  1  0  0  0  0
 20 54  1  0  0  0  0
 21 24  2  0  0  0  0
 21 55  1  0  0  0  0
 22 25  1  0  0  0  0
 22 56  1  0  0  0  0
 22 57  1  0  0  0  0
 23 26  2  0  0  0  0
 23 58  1  0  0  0  0
 24 26  1  0  0  0  0
 24 59  1  0  0  0  0
 25 60  1  0  0  0  0
 25 61  1  0  0  0  0
 27 28  1  0  0  0  0
 28 29  2  0  0  0  0
 29 30  1  0  0  0  0
 30 31  1  0  0  0  0
 30 32  2  0  0  0  0
 32 33  1  0  0  0  0
 32 34  1  0  0  0  0
 33 35  2  0  0  0  0
 34 63  1  0  0  0  0
 34 64  1  0  0  0  0
 34 65  1  0  0  0  0
 36 68  1  0  0  0  0
 36 69  1  0  0  0  0
 36 70  1  0  0  0  0
M  END
> <PUBCHEM_COMPOUND_CID>
90645308

> <PUBCHEM_COMPOUND_CANONICALIZED>
1

> <PUBCHEM_CACTVS_COMPLEXITY>
691

> <PUBCHEM_CACTVS_HBOND_ACCEPTOR>
6

> <PUBCHEM_CACTVS_HBOND_DONOR>
2

> <PUBCHEM_CACTVS_ROTATABLE_BOND>
10

> <PUBCHEM_CACTVS_SUBSKEYS>
AAADcfB7sABGAAAAAAAAAAAAAAAAASAAAAA8WIAAAAAAAFgB/AAAHgYQAAAADQrB2iYyxdPIFAisAiVyVACD2KBlLXgImLUsT9gMJnvl99vENaxk1hHo6UeY2eGOhAAAAAAAAAAIAAAAAAAAAAAAAAAAAA==

> <PUBCHEM_IUPAC_OPENEYE_NAME>
3-amino-5-chloro-N-[6-[4-(4-chlorophenyl)-1-piperidyl]hexyl]-6-methoxy-4-methyl-thieno[2,3-b]pyridine-2-carboxamide

> <PUBCHEM_IUPAC_CAS_NAME>
3-amino-5-chloro-N-[6-[4-(4-chlorophenyl)-1-piperidinyl]hexyl]-6-methoxy-4-methyl-2-thieno[2,3-b]pyridinecarboxamide

> <PUBCHEM_IUPAC_NAME_MARKUP>
3-amino-5-chloro-<I>N</I>-[6-[4-(4-chlorophenyl)piperidin-1-yl]hexyl]-6-methoxy-4-methylthieno[2,3-b]pyridine-2-carboxamide

> <PUBCHEM_IUPAC_NAME>
3-amino-5-chloro-N-[6-[4-(4-chlorophenyl)piperidin-1-yl]hexyl]-6-methoxy-4-methylthieno[2,3-b]pyridine-2-carboxamide

> <PUBCHEM_IUPAC_SYSTEMATIC_NAME>
3-azanyl-5-chloranyl-N-[6-[4-(4-chlorophenyl)piperidin-1-yl]hexyl]-6-methoxy-4-methyl-thieno[2,3-b]pyridine-2-carboxamide

> <PUBCHEM_IUPAC_TRADITIONAL_NAME>
3-amino-5-chloro-N-[6-[4-(4-chlorophenyl)piperidino]hexyl]-6-methoxy-4-methyl-thieno[2,3-b]pyridine-2-carboxamide

> <PUBCHEM_IUPAC_INCHI>
InChI=1S/C27H34Cl2N4O2S/c1-17-21-23(30)24(36-27(21)32-26(35-2)22(17)29)25(34)31-13-5-3-4-6-14-33-15-11-19(12-16-33)18-7-9-20(28)10-8-18/h7-10,19H,3-6,11-16,30H2,1-2H3,(H,31,34)

> <PUBCHEM_IUPAC_INCHIKEY>
VDABMKZNXMFUQE-UHFFFAOYSA-N

> <PUBCHEM_XLOGP3_AA>
7.3

> <PUBCHEM_EXACT_MASS>
548.1779529

> <PUBCHEM_MOLECULAR_FORMULA>
C27H34Cl2N4O2S

> <PUBCHEM_MOLECULAR_WEIGHT>
549.6

> <PUBCHEM_OPENEYE_CAN_SMILES>
CC1=C2C(=C(SC2=NC(=C1Cl)OC)C(=O)NCCCCCCN3CCC(CC3)C4=CC=C(C=C4)Cl)N

> <PUBCHEM_OPENEYE_ISO_SMILES>
CC1=C2C(=C(SC2=NC(=C1Cl)OC)C(=O)NCCCCCCN3CCC(CC3)C4=CC=C(C=C4)Cl)N

> <PUBCHEM_CACTVS_TPSA>
109

> <PUBCHEM_MONOISOTOPIC_WEIGHT>
548.1779529

> <PUBCHEM_TOTAL_CHARGE>
0

> <PUBCHEM_HEAVY_ATOM_COUNT>
36

> <PUBCHEM_ATOM_DEF_STEREO_COUNT>
0

> <PUBCHEM_ATOM_UDEF_STEREO_COUNT>
0

> <PUBCHEM_BOND_DEF_STEREO_COUNT>
0

> <PUBCHEM_BOND_UDEF_STEREO_COUNT>
0

> <PUBCHEM_ISOTOPIC_ATOM_COUNT>
0

> <PUBCHEM_COMPONENT_COUNT>
1

> <PUBCHEM_CACTVS_TAUTO_COUNT>
-1

> <PUBCHEM_COORDINATE_TYPE>
1
5
255

> <PUBCHEM_BONDANNOTATIONS>
16  20  8
16  21  8
20  23  8
21  24  8
23  26  8
24  26  8
28  29  8
29  30  8
3  28  8
3  31  8
30  31  8
30  32  8
32  33  8
33  35  8
9  31  8
9  35  8

$$$$
