155537907
  -OEChem-09292322412D

 69 72  0     1  0  0  0  0  0999 V2000
    9.4714    0.6200    0.0000 Cl  0  0  0  0  0  0  0  0  0  0  0  0
    0.0000    6.7478    0.0000 Cl  0  0  0  0  0  0  0  0  0  0  0  0
    7.3733    8.9860    0.0000 S   0  0  0  0  0  0  0  0  0  0  0  0
    6.0073    2.6200    0.0000 O   0  0  0  0  0  0  0  0  0  0  0  0
    9.1054    5.9860    0.0000 N   0  0  3  0  0  0  0  0  0  0  0  0
    6.4028   10.4805    0.0000 N   0  0  0  0  0  0  0  0  0  0  0  0
    5.5937    9.0793    0.0000 N   0  0  0  0  0  0  0  0  0  0  0  0
    4.9246    9.8224    0.0000 N   0  0  0  0  0  0  0  0  0  0  0  0
    8.2393    4.4860    0.0000 C   0  0  3  0  0  0  0  0  0  0  0  0
    7.7393    3.6200    0.0000 C   0  0  3  0  0  0  0  0  0  0  0  0
    7.2393    4.4860    0.0000 C   0  0  0  0  0  0  0  0  0  0  0  0
    9.1054    4.9860    0.0000 C   0  0  0  0  0  0  0  0  0  0  0  0
    9.9714    7.4860    0.0000 C   0  0  0  0  0  0  0  0  0  0  0  0
    9.9714    6.4860    0.0000 C   0  0  0  0  0  0  0  0  0  0  0  0
   10.4714    8.3520    0.0000 C   0  0  0  0  0  0  0  0  0  0  0  0
    9.4714    8.3520    0.0000 C   0  0  0  0  0  0  0  0  0  0  0  0
    7.7393    2.6200    0.0000 C   0  0  0  0  0  0  0  0  0  0  0  0
    8.2393    6.4860    0.0000 C   0  0  0  0  0  0  0  0  0  0  0  0
    6.8733    2.1200    0.0000 C   0  0  0  0  0  0  0  0  0  0  0  0
    8.6054    2.1200    0.0000 C   0  0  0  0  0  0  0  0  0  0  0  0
    8.2393    7.4860    0.0000 C   0  0  0  0  0  0  0  0  0  0  0  0
    6.8733    1.1200    0.0000 C   0  0  0  0  0  0  0  0  0  0  0  0
    8.6054    1.1200    0.0000 C   0  0  0  0  0  0  0  0  0  0  0  0
    7.3733    7.9860    0.0000 C   0  0  0  0  0  0  0  0  0  0  0  0
    7.7393    0.6200    0.0000 C   0  0  0  0  0  0  0  0  0  0  0  0
    5.1412    2.1200    0.0000 C   0  0  0  0  0  0  0  0  0  0  0  0
    6.5073    9.4860    0.0000 C   0  0  0  0  0  0  0  0  0  0  0  0
    5.4246   10.6885    0.0000 C   0  0  0  0  0  0  0  0  0  0  0  0
    7.1459   11.1497    0.0000 C   0  0  0  0  0  0  0  0  0  0  0  0
    5.0179   11.6020    0.0000 C   0  0  0  0  0  0  0  0  0  0  0  0
    5.6056   12.4110    0.0000 C   0  0  0  0  0  0  0  0  0  0  0  0
    4.0233   11.7065    0.0000 C   0  0  0  0  0  0  0  0  0  0  0  0
    5.1989   13.3246    0.0000 C   0  0  0  0  0  0  0  0  0  0  0  0
    3.6166   12.6201    0.0000 C   0  0  0  0  0  0  0  0  0  0  0  0
    4.2044   13.4291    0.0000 C   0  0  0  0  0  0  0  0  0  0  0  0
    8.0789    5.0849    0.0000 H   0  0  0  0  0  0  0  0  0  0  0  0
    8.3382    3.4595    0.0000 H   0  0  0  0  0  0  0  0  0  0  0  0
    7.1317    5.0966    0.0000 H   0  0  0  0  0  0  0  0  0  0  0  0
    6.6567    4.2740    0.0000 H   0  0  0  0  0  0  0  0  0  0  0  0
    9.3174    4.4034    0.0000 H   0  0  0  0  0  0  0  0  0  0  0  0
    9.7159    5.0937    0.0000 H   0  0  0  0  0  0  0  0  0  0  0  0
    9.3725    7.3256    0.0000 H   0  0  0  0  0  0  0  0  0  0  0  0
   10.1834    5.9034    0.0000 H   0  0  0  0  0  0  0  0  0  0  0  0
   10.5820    6.5937    0.0000 H   0  0  0  0  0  0  0  0  0  0  0  0
   11.0540    8.1400    0.0000 H   0  0  0  0  0  0  0  0  0  0  0  0
   10.5790    8.9626    0.0000 H   0  0  0  0  0  0  0  0  0  0  0  0
    9.3637    8.9626    0.0000 H   0  0  0  0  0  0  0  0  0  0  0  0
    8.8888    8.1400    0.0000 H   0  0  0  0  0  0  0  0  0  0  0  0
    7.6287    6.5937    0.0000 H   0  0  0  0  0  0  0  0  0  0  0  0
    8.0273    5.9034    0.0000 H   0  0  0  0  0  0  0  0  0  0  0  0
    9.1423    2.4300    0.0000 H   0  0  0  0  0  0  0  0  0  0  0  0
    8.8499    7.3784    0.0000 H   0  0  0  0  0  0  0  0  0  0  0  0
    8.4514    8.0686    0.0000 H   0  0  0  0  0  0  0  0  0  0  0  0
    6.3364    0.8100    0.0000 H   0  0  0  0  0  0  0  0  0  0  0  0
    6.7627    8.0937    0.0000 H   0  0  0  0  0  0  0  0  0  0  0  0
    7.1612    7.4034    0.0000 H   0  0  0  0  0  0  0  0  0  0  0  0
    7.7393    0.0000    0.0000 H   0  0  0  0  0  0  0  0  0  0  0  0
    4.8312    2.6569    0.0000 H   0  0  0  0  0  0  0  0  0  0  0  0
    4.6043    1.8100    0.0000 H   0  0  0  0  0  0  0  0  0  0  0  0
    5.4512    1.5831    0.0000 H   0  0  0  0  0  0  0  0  0  0  0  0
    7.5608   10.6889    0.0000 H   0  0  0  0  0  0  0  0  0  0  0  0
    7.6066   11.5645    0.0000 H   0  0  0  0  0  0  0  0  0  0  0  0
    6.7310   11.6104    0.0000 H   0  0  0  0  0  0  0  0  0  0  0  0
    6.2222   12.3462    0.0000 H   0  0  0  0  0  0  0  0  0  0  0  0
    3.6589   11.2049    0.0000 H   0  0  0  0  0  0  0  0  0  0  0  0
    5.5633   13.8262    0.0000 H   0  0  0  0  0  0  0  0  0  0  0  0
    3.0000   12.6849    0.0000 H   0  0  0  0  0  0  0  0  0  0  0  0
    3.9522   13.9955    0.0000 H   0  0  0  0  0  0  0  0  0  0  0  0
    1.0000    6.7478    0.0000 H   0  0  0  0  0  0  0  0  0  0  0  0
  1 23  1  0  0  0  0
  2 69  1  0  0  0  0
  3 24  1  0  0  0  0
  3 27  1  0  0  0  0
  4 19  1  0  0  0  0
  4 26  1  0  0  0  0
  5 12  1  0  0  0  0
  5 14  1  0  0  0  0
  5 18  1  0  0  0  0
  6 27  1  0  0  0  0
  6 28  1  0  0  0  0
  6 29  1  0  0  0  0
  7  8  1  0  0  0  0
  7 27  2  0  0  0  0
  8 28  2  0  0  0  0
  9 10  1  0  0  0  0
  9 11  1  0  0  0  0
  9 12  1  0  0  0  0
  9 36  1  0  0  0  0
 10 11  1  0  0  0  0
 10 17  1  0  0  0  0
 10 37  1  0  0  0  0
 11 38  1  0  0  0  0
 11 39  1  0  0  0  0
 12 40  1  0  0  0  0
 12 41  1  0  0  0  0
 13 14  1  0  0  0  0
 13 15  1  0  0  0  0
 13 16  1  0  0  0  0
 13 42  1  0  0  0  0
 14 43  1  0  0  0  0
 14 44  1  0  0  0  0
 15 16  1  0  0  0  0
 15 45  1  0  0  0  0
 15 46  1  0  0  0  0
 16 47  1  0  0  0  0
 16 48  1  0  0  0  0
 17 19  2  0  0  0  0
 17 20  1  0  0  0  0
 18 21  1  0  0  0  0
 18 49  1  0  0  0  0
 18 50  1  0  0  0  0
 19 22  1  0  0  0  0
 20 23  2  0  0  0  0
 20 51  1  0  0  0  0
 21 24  1  0  0  0  0
 21 52  1  0  0  0  0
 21 53  1  0  0  0  0
 22 25  2  0  0  0  0
 22 54  1  0  0  0  0
 23 25  1  0  0  0  0
 24 55  1  0  0  0  0
 24 56  1  0  0  0  0
 25 57  1  0  0  0  0
 26 58  1  0  0  0  0
 26 59  1  0  0  0  0
 26 60  1  0  0  0  0
 28 30  1  0  0  0  0
 29 61  1  0  0  0  0
 29 62  1  0  0  0  0
 29 63  1  0  0  0  0
 30 31  2  0  0  0  0
 30 32  1  0  0  0  0
 31 33  1  0  0  0  0
 31 64  1  0  0  0  0
 32 34  2  0  0  0  0
 32 65  1  0  0  0  0
 33 35  2  0  0  0  0
 33 66  1  0  0  0  0
 34 35  1  0  0  0  0
 34 67  1  0  0  0  0
 35 68  1  0  0  0  0
M  END
> <PUBCHEM_COMPOUND_CID>
155537907

> <PUBCHEM_COMPOUND_CANONICALIZED>
1

> <PUBCHEM_CACTVS_COMPLEXITY>
634

> <PUBCHEM_CACTVS_HBOND_ACCEPTOR>
5

> <PUBCHEM_CACTVS_HBOND_DONOR>
1

> <PUBCHEM_CACTVS_ROTATABLE_BOND>
12

> <PUBCHEM_CACTVS_SUBSKEYS>
AAADcfB7oABGAAAAAAAAAAAAGDAAAWAAAAAwYAAAAAAAAAAB0AAAHgYIAAAADQbF2yazFocMFAiiAiJiJACS2AtgJbAdyCAuDpiMLqKluxuEMChkyBOIqAeQ0OIOgCAAIAAIAAAAQABAABAAAAAAAAAAAA==

> <PUBCHEM_IUPAC_OPENEYE_NAME>
N-[[2-(5-chloro-2-methoxy-phenyl)cyclopropyl]methyl]-N-(cyclopropylmethyl)-3-[(4-methyl-5-phenyl-1,2,4-triazol-3-yl)sulfanyl]propan-1-amine;hydrochloride

> <PUBCHEM_IUPAC_CAS_NAME>
N-[[2-(5-chloro-2-methoxyphenyl)cyclopropyl]methyl]-N-(cyclopropylmethyl)-3-[(4-methyl-5-phenyl-1,2,4-triazol-3-yl)thio]-1-propanamine;hydrochloride

> <PUBCHEM_IUPAC_NAME_MARKUP>
<I>N</I>-[[2-(5-chloro-2-methoxyphenyl)cyclopropyl]methyl]-<I>N</I>-(cyclopropylmethyl)-3-[(4-methyl-5-phenyl-1,2,4-triazol-3-yl)sulfanyl]propan-1-amine;hydrochloride

> <PUBCHEM_IUPAC_NAME>
N-[[2-(5-chloro-2-methoxyphenyl)cyclopropyl]methyl]-N-(cyclopropylmethyl)-3-[(4-methyl-5-phenyl-1,2,4-triazol-3-yl)sulfanyl]propan-1-amine;hydrochloride

> <PUBCHEM_IUPAC_SYSTEMATIC_NAME>
N-[[2-(5-chloranyl-2-methoxy-phenyl)cyclopropyl]methyl]-N-(cyclopropylmethyl)-3-[(4-methyl-5-phenyl-1,2,4-triazol-3-yl)sulfanyl]propan-1-amine;hydrochloride

> <PUBCHEM_IUPAC_TRADITIONAL_NAME>
[2-(5-chloro-2-methoxy-phenyl)cyclopropyl]methyl-(cyclopropylmethyl)-[3-[(4-methyl-5-phenyl-1,2,4-triazol-3-yl)thio]propyl]amine;hydrochloride

> <PUBCHEM_IUPAC_INCHI>
InChI=1S/C27H33ClN4OS.ClH/c1-31-26(20-7-4-3-5-8-20)29-30-27(31)34-14-6-13-32(17-19-9-10-19)18-21-15-23(21)24-16-22(28)11-12-25(24)33-2;/h3-5,7-8,11-12,16,19,21,23H,6,9-10,13-15,17-18H2,1-2H3;1H

> <PUBCHEM_IUPAC_INCHIKEY>
SMWNOTWKMBPIIJ-UHFFFAOYSA-N

> <PUBCHEM_EXACT_MASS>
532.1830383

> <PUBCHEM_MOLECULAR_FORMULA>
C27H34Cl2N4OS

> <PUBCHEM_MOLECULAR_WEIGHT>
533.6

> <PUBCHEM_OPENEYE_CAN_SMILES>
CN1C(=NN=C1SCCCN(CC2CC2)CC3CC3C4=C(C=CC(=C4)Cl)OC)C5=CC=CC=C5.Cl

> <PUBCHEM_OPENEYE_ISO_SMILES>
CN1C(=NN=C1SCCCN(CC2CC2)CC3CC3C4=C(C=CC(=C4)Cl)OC)C5=CC=CC=C5.Cl

> <PUBCHEM_CACTVS_TPSA>
68.5

> <PUBCHEM_MONOISOTOPIC_WEIGHT>
532.1830383

> <PUBCHEM_TOTAL_CHARGE>
0

> <PUBCHEM_HEAVY_ATOM_COUNT>
35

> <PUBCHEM_ATOM_DEF_STEREO_COUNT>
0

> <PUBCHEM_ATOM_UDEF_STEREO_COUNT>
2

> <PUBCHEM_BOND_DEF_STEREO_COUNT>
0

> <PUBCHEM_BOND_UDEF_STEREO_COUNT>
0

> <PUBCHEM_ISOTOPIC_ATOM_COUNT>
0

> <PUBCHEM_COMPONENT_COUNT>
2

> <PUBCHEM_CACTVS_TAUTO_COUNT>
-1

> <PUBCHEM_COORDINATE_TYPE>
1
5
255

> <PUBCHEM_BONDANNOTATIONS>
10  17  3
17  19  8
17  20  8
19  22  8
20  23  8
22  25  8
23  25  8
30  31  8
30  32  8
31  33  8
32  34  8
33  35  8
34  35  8
6  27  8
6  28  8
7  27  8
7  8  8
8  28  8
9  12  3

$$$$
