44353354
  -OEChem-09292322202D

 58 60  0     1  0  0  0  0  0999 V2000
   14.1846    3.0204    0.0000 Cl  0  0  0  0  0  0  0  0  0  0  0  0
    4.5981   -0.5204    0.0000 N   0  0  0  0  0  0  0  0  0  0  0  0
    5.4641   -0.0204    0.0000 C   0  0  1  0  0  0  0  0  0  0  0  0
    5.4641    0.9796    0.0000 C   0  0  0  0  0  0  0  0  0  0  0  0
    6.3301   -0.5204    0.0000 C   0  0  0  0  0  0  0  0  0  0  0  0
    6.3301    1.4796    0.0000 C   0  0  0  0  0  0  0  0  0  0  0  0
    7.1962   -0.0204    0.0000 C   0  0  0  0  0  0  0  0  0  0  0  0
    7.1962    0.9796    0.0000 C   0  0  0  0  0  0  0  0  0  0  0  0
    3.7320   -0.0204    0.0000 C   0  0  0  0  0  0  0  0  0  0  0  0
    4.5981   -1.5204    0.0000 C   0  0  0  0  0  0  0  0  0  0  0  0
    8.0901    1.5143    0.0000 C   0  0  0  0  0  0  0  0  0  0  0  0
    8.0901   -0.5551    0.0000 C   0  0  0  0  0  0  0  0  0  0  0  0
    8.9962    1.0004    0.0000 C   0  0  0  0  0  0  0  0  0  0  0  0
    2.8660   -0.5204    0.0000 C   0  0  0  0  0  0  0  0  0  0  0  0
    3.7320   -2.0204    0.0000 C   0  0  0  0  0  0  0  0  0  0  0  0
    8.9962   -0.0412    0.0000 C   0  0  0  0  0  0  0  0  0  0  0  0
    9.8602    1.5037    0.0000 C   0  0  0  0  0  0  0  0  0  0  0  0
    2.0000   -0.0204    0.0000 C   0  0  0  0  0  0  0  0  0  0  0  0
    3.7320   -3.0204    0.0000 C   0  0  0  0  0  0  0  0  0  0  0  0
   10.7282    1.0071    0.0000 C   0  0  0  0  0  0  0  0  0  0  0  0
   11.5923    1.5104    0.0000 C   0  0  0  0  0  0  0  0  0  0  0  0
   11.5884    2.5104    0.0000 C   0  0  0  0  0  0  0  0  0  0  0  0
   12.4602    1.0138    0.0000 C   0  0  0  0  0  0  0  0  0  0  0  0
   12.4525    3.0137    0.0000 C   0  0  0  0  0  0  0  0  0  0  0  0
   13.3243    1.5171    0.0000 C   0  0  0  0  0  0  0  0  0  0  0  0
   13.3205    2.5171    0.0000 C   0  0  0  0  0  0  0  0  0  0  0  0
    5.4641   -0.6404    0.0000 H   0  0  0  0  0  0  0  0  0  0  0  0
    5.2520    1.5622    0.0000 H   0  0  0  0  0  0  0  0  0  0  0  0
    4.8535    0.8719    0.0000 H   0  0  0  0  0  0  0  0  0  0  0  0
    5.9316   -0.9954    0.0000 H   0  0  0  0  0  0  0  0  0  0  0  0
    6.7287   -0.9954    0.0000 H   0  0  0  0  0  0  0  0  0  0  0  0
    6.7287    1.9545    0.0000 H   0  0  0  0  0  0  0  0  0  0  0  0
    5.9316    1.9545    0.0000 H   0  0  0  0  0  0  0  0  0  0  0  0
    4.1306    0.4545    0.0000 H   0  0  0  0  0  0  0  0  0  0  0  0
    3.3335    0.4545    0.0000 H   0  0  0  0  0  0  0  0  0  0  0  0
    4.8101   -2.1030    0.0000 H   0  0  0  0  0  0  0  0  0  0  0  0
    5.2087   -1.4128    0.0000 H   0  0  0  0  0  0  0  0  0  0  0  0
    8.0829    2.1342    0.0000 H   0  0  0  0  0  0  0  0  0  0  0  0
    8.0829   -1.1750    0.0000 H   0  0  0  0  0  0  0  0  0  0  0  0
    2.4675   -0.9954    0.0000 H   0  0  0  0  0  0  0  0  0  0  0  0
    3.2646   -0.9954    0.0000 H   0  0  0  0  0  0  0  0  0  0  0  0
    3.5200   -1.4378    0.0000 H   0  0  0  0  0  0  0  0  0  0  0  0
    3.1215   -2.1281    0.0000 H   0  0  0  0  0  0  0  0  0  0  0  0
    9.5319   -0.3533    0.0000 H   0  0  0  0  0  0  0  0  0  0  0  0
   10.2569    1.9802    0.0000 H   0  0  0  0  0  0  0  0  0  0  0  0
    9.4599    1.9771    0.0000 H   0  0  0  0  0  0  0  0  0  0  0  0
    2.3100    0.5165    0.0000 H   0  0  0  0  0  0  0  0  0  0  0  0
    1.4631    0.2896    0.0000 H   0  0  0  0  0  0  0  0  0  0  0  0
    1.6900   -0.5574    0.0000 H   0  0  0  0  0  0  0  0  0  0  0  0
    3.1120   -3.0204    0.0000 H   0  0  0  0  0  0  0  0  0  0  0  0
    3.7320   -3.6404    0.0000 H   0  0  0  0  0  0  0  0  0  0  0  0
    4.3520   -3.0204    0.0000 H   0  0  0  0  0  0  0  0  0  0  0  0
   10.3315    0.5306    0.0000 H   0  0  0  0  0  0  0  0  0  0  0  0
   11.1286    0.5337    0.0000 H   0  0  0  0  0  0  0  0  0  0  0  0
   11.0503    2.8183    0.0000 H   0  0  0  0  0  0  0  0  0  0  0  0
   12.4626    0.3938    0.0000 H   0  0  0  0  0  0  0  0  0  0  0  0
   12.4501    3.6337    0.0000 H   0  0  0  0  0  0  0  0  0  0  0  0
   13.8625    1.2092    0.0000 H   0  0  0  0  0  0  0  0  0  0  0  0
  1 26  1  0  0  0  0
  3  2  1  1  0  0  0
  2  9  1  0  0  0  0
  2 10  1  0  0  0  0
  3  4  1  0  0  0  0
  3  5  1  0  0  0  0
  3 27  1  0  0  0  0
  4  6  1  0  0  0  0
  4 28  1  0  0  0  0
  4 29  1  0  0  0  0
  5  7  1  0  0  0  0
  5 30  1  0  0  0  0
  5 31  1  0  0  0  0
  6  8  1  0  0  0  0
  6 32  1  0  0  0  0
  6 33  1  0  0  0  0
  7  8  2  0  0  0  0
  7 12  1  0  0  0  0
  8 11  1  0  0  0  0
  9 14  1  0  0  0  0
  9 34  1  0  0  0  0
  9 35  1  0  0  0  0
 10 15  1  0  0  0  0
 10 36  1  0  0  0  0
 10 37  1  0  0  0  0
 11 13  2  0  0  0  0
 11 38  1  0  0  0  0
 12 16  2  0  0  0  0
 12 39  1  0  0  0  0
 13 16  1  0  0  0  0
 13 17  1  0  0  0  0
 14 18  1  0  0  0  0
 14 40  1  0  0  0  0
 14 41  1  0  0  0  0
 15 19  1  0  0  0  0
 15 42  1  0  0  0  0
 15 43  1  0  0  0  0
 16 44  1  0  0  0  0
 17 20  1  0  0  0  0
 17 45  1  0  0  0  0
 17 46  1  0  0  0  0
 18 47  1  0  0  0  0
 18 48  1  0  0  0  0
 18 49  1  0  0  0  0
 19 50  1  0  0  0  0
 19 51  1  0  0  0  0
 19 52  1  0  0  0  0
 20 21  1  0  0  0  0
 20 53  1  0  0  0  0
 20 54  1  0  0  0  0
 21 22  2  0  0  0  0
 21 23  1  0  0  0  0
 22 24  1  0  0  0  0
 22 55  1  0  0  0  0
 23 25  2  0  0  0  0
 23 56  1  0  0  0  0
 24 26  2  0  0  0  0
 24 57  1  0  0  0  0
 25 26  1  0  0  0  0
 25 58  1  0  0  0  0
M  END
> <PUBCHEM_COMPOUND_CID>
44353354

> <PUBCHEM_COMPOUND_CANONICALIZED>
1

> <PUBCHEM_CACTVS_COMPLEXITY>
384

> <PUBCHEM_CACTVS_HBOND_ACCEPTOR>
1

> <PUBCHEM_CACTVS_HBOND_DONOR>
0

> <PUBCHEM_CACTVS_ROTATABLE_BOND>
8

> <PUBCHEM_CACTVS_SUBSKEYS>
AAADcfB6AAAEAAAAAAAAAAAAAAAAAAAAAAAwYMAAAAAAAADBQAAAHAIAAAAADCrBGCQyAIMAAACAAiBCAAACAAAgBQAIiAAIAogIICKBkxGEIAAggACIiAcQgMAOxAACAAAQAACYAASAACAAAAAAAAAAAA==

> <PUBCHEM_IUPAC_OPENEYE_NAME>
(2S)-6-[2-(4-chlorophenyl)ethyl]-N,N-dipropyl-tetralin-2-amine

> <PUBCHEM_IUPAC_CAS_NAME>
(2S)-6-[2-(4-chlorophenyl)ethyl]-N,N-dipropyl-1,2,3,4-tetrahydronaphthalen-2-amine

> <PUBCHEM_IUPAC_NAME_MARKUP>
(2<I>S</I>)-6-[2-(4-chlorophenyl)ethyl]-<I>N</I>,<I>N</I>-dipropyl-1,2,3,4-tetrahydronaphthalen-2-amine

> <PUBCHEM_IUPAC_NAME>
(2S)-6-[2-(4-chlorophenyl)ethyl]-N,N-dipropyl-1,2,3,4-tetrahydronaphthalen-2-amine

> <PUBCHEM_IUPAC_SYSTEMATIC_NAME>
(2S)-6-[2-(4-chlorophenyl)ethyl]-N,N-dipropyl-1,2,3,4-tetrahydronaphthalen-2-amine

> <PUBCHEM_IUPAC_TRADITIONAL_NAME>
[(2S)-6-[2-(4-chlorophenyl)ethyl]tetralin-2-yl]-dipropyl-amine

> <PUBCHEM_IUPAC_INCHI>
InChI=1S/C24H32ClN/c1-3-15-26(16-4-2)24-14-11-21-17-20(7-10-22(21)18-24)6-5-19-8-12-23(25)13-9-19/h7-10,12-13,17,24H,3-6,11,14-16,18H2,1-2H3/t24-/m0/s1

> <PUBCHEM_IUPAC_INCHIKEY>
XJCNAPNYTSUCIR-DEOSSOPVSA-N

> <PUBCHEM_XLOGP3_AA>
7.3

> <PUBCHEM_EXACT_MASS>
369.2223277

> <PUBCHEM_MOLECULAR_FORMULA>
C24H32ClN

> <PUBCHEM_MOLECULAR_WEIGHT>
370.0

> <PUBCHEM_OPENEYE_CAN_SMILES>
CCCN(CCC)C1CCC2=C(C1)C=CC(=C2)CCC3=CC=C(C=C3)Cl

> <PUBCHEM_OPENEYE_ISO_SMILES>
CCCN(CCC)[C@H]1CCC2=C(C1)C=CC(=C2)CCC3=CC=C(C=C3)Cl

> <PUBCHEM_CACTVS_TPSA>
3.2

> <PUBCHEM_MONOISOTOPIC_WEIGHT>
369.2223277

> <PUBCHEM_TOTAL_CHARGE>
0

> <PUBCHEM_HEAVY_ATOM_COUNT>
26

> <PUBCHEM_ATOM_DEF_STEREO_COUNT>
1

> <PUBCHEM_ATOM_UDEF_STEREO_COUNT>
0

> <PUBCHEM_BOND_DEF_STEREO_COUNT>
0

> <PUBCHEM_BOND_UDEF_STEREO_COUNT>
0

> <PUBCHEM_ISOTOPIC_ATOM_COUNT>
0

> <PUBCHEM_COMPONENT_COUNT>
1

> <PUBCHEM_CACTVS_TAUTO_COUNT>
-1

> <PUBCHEM_COORDINATE_TYPE>
1
5
255

> <PUBCHEM_BONDANNOTATIONS>
11  13  8
12  16  8
13  16  8
3  2  5
21  22  8
21  23  8
22  24  8
23  25  8
24  26  8
25  26  8
7  12  8
7  8  8
8  11  8

$$$$
