138671308
  -OEChem-09292322452D

 63 66  0     1  0  0  0  0  0999 V2000
   13.8535   -0.8305    0.0000 S   0  0  0  0  0  0  0  0  0  0  0  0
   17.9454   -2.4808    0.0000 F   0  0  0  0  0  0  0  0  0  0  0  0
   16.9504   -3.4858    0.0000 F   0  0  0  0  0  0  0  0  0  0  0  0
   16.9404   -1.4858    0.0000 F   0  0  0  0  0  0  0  0  0  0  0  0
    7.7207   -1.6658    0.0000 O   0  0  0  0  0  0  0  0  0  0  0  0
    5.2078    0.9198    0.0000 O   0  0  0  0  0  0  0  0  0  0  0  0
   15.4411   -1.6273    0.0000 O   0  0  0  0  0  0  0  0  0  0  0  0
    2.2128    1.0094    0.0000 O   0  0  0  0  0  0  0  0  0  0  0  0
   10.7207   -1.6508    0.0000 N   0  0  3  0  0  0  0  0  0  0  0  0
    5.2164   -0.8122    0.0000 N   0  0  0  0  0  0  0  0  0  0  0  0
   13.8615   -2.4399    0.0000 N   0  0  0  0  0  0  0  0  0  0  0  0
    2.0000    1.9865    0.0000 N   0  0  0  0  0  0  0  0  0  0  0  0
    8.2164   -0.7973    0.0000 C   0  0  2  0  0  0  0  0  0  0  0  0
    7.7121    0.0662    0.0000 C   0  0  0  0  0  0  0  0  0  0  0  0
    9.2164   -0.7923    0.0000 C   0  0  0  0  0  0  0  0  0  0  0  0
    6.7121    0.0612    0.0000 C   0  0  0  0  0  0  0  0  0  0  0  0
    6.2164   -0.8073    0.0000 C   0  0  1  0  0  0  0  0  0  0  0  0
    9.7207   -1.6558    0.0000 C   0  0  0  0  0  0  0  0  0  0  0  0
    6.7207   -1.6708    0.0000 C   0  0  0  0  0  0  0  0  0  0  0  0
   11.1501   -0.7477    0.0000 C   0  0  0  0  0  0  0  0  0  0  0  0
   11.1591   -2.5496    0.0000 C   0  0  0  0  0  0  0  0  0  0  0  0
   12.1239   -0.5203    0.0000 C   0  0  0  0  0  0  0  0  0  0  0  0
   12.1351   -2.7673    0.0000 C   0  0  0  0  0  0  0  0  0  0  0  0
   12.9088   -1.1399    0.0000 C   0  0  0  0  0  0  0  0  0  0  0  0
   12.9138   -2.1399    0.0000 C   0  0  0  0  0  0  0  0  0  0  0  0
    4.7121    0.0513    0.0000 C   0  0  0  0  0  0  0  0  0  0  0  0
    3.7121    0.0463    0.0000 C   0  0  0  0  0  0  0  0  0  0  0  0
   14.4411   -1.6323    0.0000 C   0  0  0  0  0  0  0  0  0  0  0  0
    3.2078    0.9098    0.0000 C   0  0  0  0  0  0  0  0  0  0  0  0
    3.6100    1.8254    0.0000 C   0  0  0  0  0  0  0  0  0  0  0  0
   15.9454   -2.4908    0.0000 C   0  0  0  0  0  0  0  0  0  0  0  0
    2.8635    2.4908    0.0000 C   0  0  0  0  0  0  0  0  0  0  0  0
   16.9454   -2.4858    0.0000 C   0  0  0  0  0  0  0  0  0  0  0  0
    2.9631    3.4858    0.0000 C   0  0  0  0  0  0  0  0  0  0  0  0
    8.5291   -1.3327    0.0000 H   0  0  0  0  0  0  0  0  0  0  0  0
    8.2936    0.2812    0.0000 H   0  0  0  0  0  0  0  0  0  0  0  0
    7.6014    0.6763    0.0000 H   0  0  0  0  0  0  0  0  0  0  0  0
    9.7979   -0.5773    0.0000 H   0  0  0  0  0  0  0  0  0  0  0  0
    9.1057   -0.1823    0.0000 H   0  0  0  0  0  0  0  0  0  0  0  0
    6.8167    0.6724    0.0000 H   0  0  0  0  0  0  0  0  0  0  0  0
    6.1284    0.2704    0.0000 H   0  0  0  0  0  0  0  0  0  0  0  0
    5.9091   -1.3457    0.0000 H   0  0  0  0  0  0  0  0  0  0  0  0
    9.1392   -1.8708    0.0000 H   0  0  0  0  0  0  0  0  0  0  0  0
    9.8314   -2.2659    0.0000 H   0  0  0  0  0  0  0  0  0  0  0  0
    6.1392   -1.8857    0.0000 H   0  0  0  0  0  0  0  0  0  0  0  0
    6.8314   -2.2808    0.0000 H   0  0  0  0  0  0  0  0  0  0  0  0
   11.1470   -0.1277    0.0000 H   0  0  0  0  0  0  0  0  0  0  0  0
   10.5449   -0.6128    0.0000 H   0  0  0  0  0  0  0  0  0  0  0  0
   10.5553   -2.6906    0.0000 H   0  0  0  0  0  0  0  0  0  0  0  0
   11.1621   -3.1696    0.0000 H   0  0  0  0  0  0  0  0  0  0  0  0
   12.6067   -0.1314    0.0000 H   0  0  0  0  0  0  0  0  0  0  0  0
   11.8521    0.0369    0.0000 H   0  0  0  0  0  0  0  0  0  0  0  0
   11.8689   -3.3272    0.0000 H   0  0  0  0  0  0  0  0  0  0  0  0
   12.6217   -3.1514    0.0000 H   0  0  0  0  0  0  0  0  0  0  0  0
    4.9091   -1.3507    0.0000 H   0  0  0  0  0  0  0  0  0  0  0  0
    3.1306   -0.1687    0.0000 H   0  0  0  0  0  0  0  0  0  0  0  0
    3.8228   -0.5637    0.0000 H   0  0  0  0  0  0  0  0  0  0  0  0
    4.2158    1.9573    0.0000 H   0  0  0  0  0  0  0  0  0  0  0  0
   15.3639   -2.7058    0.0000 H   0  0  0  0  0  0  0  0  0  0  0  0
   16.0561   -3.1008    0.0000 H   0  0  0  0  0  0  0  0  0  0  0  0
    3.5800    3.4241    0.0000 H   0  0  0  0  0  0  0  0  0  0  0  0
    3.0248    4.1027    0.0000 H   0  0  0  0  0  0  0  0  0  0  0  0
    2.3462    3.5476    0.0000 H   0  0  0  0  0  0  0  0  0  0  0  0
  1 24  1  0  0  0  0
  1 28  1  0  0  0  0
  2 33  1  0  0  0  0
  3 33  1  0  0  0  0
  4 33  1  0  0  0  0
  5 13  1  0  0  0  0
  5 19  1  0  0  0  0
  6 26  2  0  0  0  0
  7 28  1  0  0  0  0
  7 31  1  0  0  0  0
  8 12  1  0  0  0  0
  8 29  1  0  0  0  0
  9 18  1  0  0  0  0
  9 20  1  0  0  0  0
  9 21  1  0  0  0  0
 17 10  1  1  0  0  0
 10 26  1  0  0  0  0
 10 55  1  0  0  0  0
 11 25  1  0  0  0  0
 11 28  2  0  0  0  0
 12 32  2  0  0  0  0
 13 14  1  0  0  0  0
 13 15  1  6  0  0  0
 13 35  1  0  0  0  0
 14 16  1  0  0  0  0
 14 36  1  0  0  0  0
 14 37  1  0  0  0  0
 15 18  1  0  0  0  0
 15 38  1  0  0  0  0
 15 39  1  0  0  0  0
 16 17  1  0  0  0  0
 16 40  1  0  0  0  0
 16 41  1  0  0  0  0
 17 19  1  0  0  0  0
 17 42  1  0  0  0  0
 18 43  1  0  0  0  0
 18 44  1  0  0  0  0
 19 45  1  0  0  0  0
 19 46  1  0  0  0  0
 20 22  1  0  0  0  0
 20 47  1  0  0  0  0
 20 48  1  0  0  0  0
 21 23  1  0  0  0  0
 21 49  1  0  0  0  0
 21 50  1  0  0  0  0
 22 24  1  0  0  0  0
 22 51  1  0  0  0  0
 22 52  1  0  0  0  0
 23 25  1  0  0  0  0
 23 53  1  0  0  0  0
 23 54  1  0  0  0  0
 24 25  2  0  0  0  0
 26 27  1  0  0  0  0
 27 29  1  0  0  0  0
 27 56  1  0  0  0  0
 27 57  1  0  0  0  0
 29 30  2  0  0  0  0
 30 32  1  0  0  0  0
 30 58  1  0  0  0  0
 31 33  1  0  0  0  0
 31 59  1  0  0  0  0
 31 60  1  0  0  0  0
 32 34  1  0  0  0  0
 34 61  1  0  0  0  0
 34 62  1  0  0  0  0
 34 63  1  0  0  0  0
M  END
> <PUBCHEM_COMPOUND_CID>
138671308

> <PUBCHEM_COMPOUND_CANONICALIZED>
1

> <PUBCHEM_CACTVS_COMPLEXITY>
677

> <PUBCHEM_CACTVS_HBOND_ACCEPTOR>
11

> <PUBCHEM_CACTVS_HBOND_DONOR>
1

> <PUBCHEM_CACTVS_ROTATABLE_BOND>
8

> <PUBCHEM_CACTVS_SUBSKEYS>
AAADceB7uYBAAAAAAAAAAAAAAAAAAWLAAAAkAAAABYAAAACx4AAAHwQUAAAACDzh1hYyhZPYFAitAaVyVgCA8KBlKjggGLU+bFoCJh5o1ZOPEYBmthjYSUO4ySAQAAAAAAAAAAAAAAAAAAAAAAAAAAAAAA==

> <PUBCHEM_IUPAC_OPENEYE_NAME>
2-(3-methylisoxazol-5-yl)-N-[(3S,6R)-6-[2-[2-(2,2,2-trifluoroethoxy)-4,5,7,8-tetrahydrothiazolo[4,5-d]azepin-6-yl]ethyl]tetrahydropyran-3-yl]acetamide

> <PUBCHEM_IUPAC_CAS_NAME>
2-(3-methyl-5-isoxazolyl)-N-[(3S,6R)-6-[2-[2-(2,2,2-trifluoroethoxy)-4,5,7,8-tetrahydrothiazolo[4,5-d]azepin-6-yl]ethyl]-3-oxanyl]acetamide

> <PUBCHEM_IUPAC_NAME_MARKUP>
2-(3-methyl-1,2-oxazol-5-yl)-<I>N</I>-[(3<I>S</I>,6<I>R</I>)-6-[2-[2-(2,2,2-trifluoroethoxy)-4,5,7,8-tetrahydro-[1,3]thiazolo[4,5-d]azepin-6-yl]ethyl]oxan-3-yl]acetamide

> <PUBCHEM_IUPAC_NAME>
2-(3-methyl-1,2-oxazol-5-yl)-N-[(3S,6R)-6-[2-[2-(2,2,2-trifluoroethoxy)-4,5,7,8-tetrahydro-[1,3]thiazolo[4,5-d]azepin-6-yl]ethyl]oxan-3-yl]acetamide

> <PUBCHEM_IUPAC_SYSTEMATIC_NAME>
2-(3-methyl-1,2-oxazol-5-yl)-N-[(3S,6R)-6-[2-[2-[2,2,2-tris(fluoranyl)ethoxy]-4,5,7,8-tetrahydro-[1,3]thiazolo[4,5-d]azepin-6-yl]ethyl]oxan-3-yl]ethanamide

> <PUBCHEM_IUPAC_TRADITIONAL_NAME>
2-(3-methylisoxazol-5-yl)-N-[(3S,6R)-6-[2-[2-(2,2,2-trifluoroethoxy)-4,5,7,8-tetrahydrothiazol[4,5-d]azepin-6-yl]ethyl]tetrahydropyran-3-yl]acetamide

> <PUBCHEM_IUPAC_INCHI>
InChI=1S/C22H29F3N4O4S/c1-14-10-17(33-28-14)11-20(30)26-15-2-3-16(31-12-15)4-7-29-8-5-18-19(6-9-29)34-21(27-18)32-13-22(23,24)25/h10,15-16H,2-9,11-13H2,1H3,(H,26,30)/t15-,16+/m0/s1

> <PUBCHEM_IUPAC_INCHIKEY>
LJTCNKUXICKSFP-JKSUJKDBSA-N

> <PUBCHEM_XLOGP3_AA>
3.4

> <PUBCHEM_EXACT_MASS>
502.18616108

> <PUBCHEM_MOLECULAR_FORMULA>
C22H29F3N4O4S

> <PUBCHEM_MOLECULAR_WEIGHT>
502.6

> <PUBCHEM_OPENEYE_CAN_SMILES>
CC1=NOC(=C1)CC(=O)NC2CCC(OC2)CCN3CCC4=C(CC3)SC(=N4)OCC(F)(F)F

> <PUBCHEM_OPENEYE_ISO_SMILES>
CC1=NOC(=C1)CC(=O)N[C@H]2CC[C@@H](OC2)CCN3CCC4=C(CC3)SC(=N4)OCC(F)(F)F

> <PUBCHEM_CACTVS_TPSA>
118

> <PUBCHEM_MONOISOTOPIC_WEIGHT>
502.18616108

> <PUBCHEM_TOTAL_CHARGE>
0

> <PUBCHEM_HEAVY_ATOM_COUNT>
34

> <PUBCHEM_ATOM_DEF_STEREO_COUNT>
2

> <PUBCHEM_ATOM_UDEF_STEREO_COUNT>
0

> <PUBCHEM_BOND_DEF_STEREO_COUNT>
0

> <PUBCHEM_BOND_UDEF_STEREO_COUNT>
0

> <PUBCHEM_ISOTOPIC_ATOM_COUNT>
0

> <PUBCHEM_COMPONENT_COUNT>
1

> <PUBCHEM_CACTVS_TAUTO_COUNT>
-1

> <PUBCHEM_COORDINATE_TYPE>
1
5
255

> <PUBCHEM_BONDANNOTATIONS>
1  24  8
1  28  8
17  10  5
11  25  8
11  28  8
12  32  8
13  15  6
24  25  8
29  30  8
30  32  8
8  12  8
8  29  8

$$$$
