45272411
  -OEChem-09292322482D

 53 57  0     0  0  0  0  0  0999 V2000
    7.4173    0.2548    0.0000 O   0  0  0  0  0  0  0  0  0  0  0  0
    9.9658   -4.9084    0.0000 O   0  0  0  0  0  0  0  0  0  0  0  0
    3.8880    1.7252    0.0000 N   0  0  0  0  0  0  0  0  0  0  0  0
    5.6960   -0.2064    0.0000 N   0  0  0  0  0  0  0  0  0  0  0  0
    6.7787   -1.4089    0.0000 N   0  0  0  0  0  0  0  0  0  0  0  0
   10.3230   -3.2136    0.0000 N   0  0  0  0  0  0  0  0  0  0  0  0
    4.2948    0.8116    0.0000 C   0  0  0  0  0  0  0  0  0  0  0  0
    5.2893    0.7071    0.0000 C   0  0  0  0  0  0  0  0  0  0  0  0
    2.9155    1.9310    0.0000 C   0  0  0  0  0  0  0  0  0  0  0  0
    4.3858    2.5856    0.0000 C   0  0  0  0  0  0  0  0  0  0  0  0
    5.1960   -1.0725    0.0000 C   0  0  0  0  0  0  0  0  0  0  0  0
    5.8652   -1.8156    0.0000 C   0  0  0  0  0  0  0  0  0  0  0  0
    2.8090    2.9194    0.0000 C   0  0  0  0  0  0  0  0  0  0  0  0
    3.7226    3.3261    0.0000 C   0  0  0  0  0  0  0  0  0  0  0  0
    6.6742   -0.4143    0.0000 C   0  0  0  0  0  0  0  0  0  0  0  0
    7.6447   -1.9089    0.0000 C   0  0  0  0  0  0  0  0  0  0  0  0
    2.0000    3.5072    0.0000 C   0  0  0  0  0  0  0  0  0  0  0  0
    3.8271    4.3206    0.0000 C   0  0  0  0  0  0  0  0  0  0  0  0
    8.5108   -1.4089    0.0000 C   0  0  0  0  0  0  0  0  0  0  0  0
    7.6447   -2.9089    0.0000 C   0  0  0  0  0  0  0  0  0  0  0  0
    9.3768   -1.9089    0.0000 C   0  0  0  0  0  0  0  0  0  0  0  0
    9.3768   -2.9089    0.0000 C   0  0  0  0  0  0  0  0  0  0  0  0
    2.1045    4.5017    0.0000 C   0  0  0  0  0  0  0  0  0  0  0  0
    3.0181    4.9084    0.0000 C   0  0  0  0  0  0  0  0  0  0  0  0
    8.5108   -3.4089    0.0000 C   0  0  0  0  0  0  0  0  0  0  0  0
   10.3230   -1.6041    0.0000 C   0  0  0  0  0  0  0  0  0  0  0  0
   10.9066   -2.4089    0.0000 C   0  0  0  0  0  0  0  0  0  0  0  0
   10.6337   -4.1641    0.0000 C   0  0  0  0  0  0  0  0  0  0  0  0
   11.6122   -4.3703    0.0000 C   0  0  0  0  0  0  0  0  0  0  0  0
    3.6932    0.6616    0.0000 H   0  0  0  0  0  0  0  0  0  0  0  0
    4.3380    0.1931    0.0000 H   0  0  0  0  0  0  0  0  0  0  0  0
    5.8909    0.8571    0.0000 H   0  0  0  0  0  0  0  0  0  0  0  0
    5.2460    1.3256    0.0000 H   0  0  0  0  0  0  0  0  0  0  0  0
    4.6944   -0.7080    0.0000 H   0  0  0  0  0  0  0  0  0  0  0  0
    4.7812   -1.5332    0.0000 H   0  0  0  0  0  0  0  0  0  0  0  0
    2.2955    1.9298    0.0000 H   0  0  0  0  0  0  0  0  0  0  0  0
    2.8516    1.3143    0.0000 H   0  0  0  0  0  0  0  0  0  0  0  0
    4.8869    2.2205    0.0000 H   0  0  0  0  0  0  0  0  0  0  0  0
    4.8016    3.0456    0.0000 H   0  0  0  0  0  0  0  0  0  0  0  0
    5.3636   -2.1800    0.0000 H   0  0  0  0  0  0  0  0  0  0  0  0
    6.1752   -2.3525    0.0000 H   0  0  0  0  0  0  0  0  0  0  0  0
    1.4336    3.2550    0.0000 H   0  0  0  0  0  0  0  0  0  0  0  0
    4.3935    4.5728    0.0000 H   0  0  0  0  0  0  0  0  0  0  0  0
    8.5108   -0.7889    0.0000 H   0  0  0  0  0  0  0  0  0  0  0  0
    7.1078   -3.2189    0.0000 H   0  0  0  0  0  0  0  0  0  0  0  0
    1.6029    4.8661    0.0000 H   0  0  0  0  0  0  0  0  0  0  0  0
    3.0829    5.5250    0.0000 H   0  0  0  0  0  0  0  0  0  0  0  0
    8.5108   -4.0289    0.0000 H   0  0  0  0  0  0  0  0  0  0  0  0
   10.5156   -1.0148    0.0000 H   0  0  0  0  0  0  0  0  0  0  0  0
   11.5266   -2.4089    0.0000 H   0  0  0  0  0  0  0  0  0  0  0  0
   11.4843   -4.9770    0.0000 H   0  0  0  0  0  0  0  0  0  0  0  0
   12.2188   -4.4982    0.0000 H   0  0  0  0  0  0  0  0  0  0  0  0
   11.7400   -3.7637    0.0000 H   0  0  0  0  0  0  0  0  0  0  0  0
  1 15  2  0  0  0  0
  2 28  2  0  0  0  0
  3  7  1  0  0  0  0
  3  9  1  0  0  0  0
  3 10  1  0  0  0  0
  4  8  1  0  0  0  0
  4 11  1  0  0  0  0
  4 15  1  0  0  0  0
  5 12  1  0  0  0  0
  5 15  1  0  0  0  0
  5 16  1  0  0  0  0
  6 22  1  0  0  0  0
  6 27  1  0  0  0  0
  6 28  1  0  0  0  0
  7  8  1  0  0  0  0
  7 30  1  0  0  0  0
  7 31  1  0  0  0  0
  8 32  1  0  0  0  0
  8 33  1  0  0  0  0
  9 13  1  0  0  0  0
  9 36  1  0  0  0  0
  9 37  1  0  0  0  0
 10 14  1  0  0  0  0
 10 38  1  0  0  0  0
 10 39  1  0  0  0  0
 11 12  1  0  0  0  0
 11 34  1  0  0  0  0
 11 35  1  0  0  0  0
 12 40  1  0  0  0  0
 12 41  1  0  0  0  0
 13 14  1  0  0  0  0
 13 17  2  0  0  0  0
 14 18  2  0  0  0  0
 16 19  2  0  0  0  0
 16 20  1  0  0  0  0
 17 23  1  0  0  0  0
 17 42  1  0  0  0  0
 18 24  1  0  0  0  0
 18 43  1  0  0  0  0
 19 21  1  0  0  0  0
 19 44  1  0  0  0  0
 20 25  2  0  0  0  0
 20 45  1  0  0  0  0
 21 22  2  0  0  0  0
 21 26  1  0  0  0  0
 22 25  1  0  0  0  0
 23 24  2  0  0  0  0
 23 46  1  0  0  0  0
 24 47  1  0  0  0  0
 25 48  1  0  0  0  0
 26 27  2  0  0  0  0
 26 49  1  0  0  0  0
 27 50  1  0  0  0  0
 28 29  1  0  0  0  0
 29 51  1  0  0  0  0
 29 52  1  0  0  0  0
 29 53  1  0  0  0  0
M  END
> <PUBCHEM_COMPOUND_CID>
45272411

> <PUBCHEM_COMPOUND_CANONICALIZED>
1

> <PUBCHEM_CACTVS_COMPLEXITY>
626

> <PUBCHEM_CACTVS_HBOND_ACCEPTOR>
3

> <PUBCHEM_CACTVS_HBOND_DONOR>
0

> <PUBCHEM_CACTVS_ROTATABLE_BOND>
4

> <PUBCHEM_CACTVS_SUBSKEYS>
AAADceB7sAAAAAAAAAAAAAAAAAAAAWLFgAAwYAAAAAAAAFgB9AAAHgAAAAAADAjBngQ/wPMMEACoAzV3VACCgCAxAiAI2CA4ZJiIYOLAkZGUIAhohgLIyCcQgIAOgACAQAASAAAAAQCAACQAAAAAAAAAAA==

> <PUBCHEM_IUPAC_OPENEYE_NAME>
1-(1-acetylindol-5-yl)-3-(2-isoindolin-2-ylethyl)imidazolidin-2-one

> <PUBCHEM_IUPAC_CAS_NAME>
1-(1-acetyl-5-indolyl)-3-[2-(1,3-dihydroisoindol-2-yl)ethyl]-2-imidazolidinone

> <PUBCHEM_IUPAC_NAME_MARKUP>
1-(1-acetylindol-5-yl)-3-[2-(1,3-dihydroisoindol-2-yl)ethyl]imidazolidin-2-one

> <PUBCHEM_IUPAC_NAME>
1-(1-acetylindol-5-yl)-3-[2-(1,3-dihydroisoindol-2-yl)ethyl]imidazolidin-2-one

> <PUBCHEM_IUPAC_SYSTEMATIC_NAME>
1-[2-(1,3-dihydroisoindol-2-yl)ethyl]-3-(1-ethanoylindol-5-yl)imidazolidin-2-one

> <PUBCHEM_IUPAC_TRADITIONAL_NAME>
1-(1-acetylindol-5-yl)-3-(2-isoindolin-2-ylethyl)-2-imidazolidinone

> <PUBCHEM_IUPAC_INCHI>
InChI=1S/C23H24N4O2/c1-17(28)26-9-8-18-14-21(6-7-22(18)26)27-13-12-25(23(27)29)11-10-24-15-19-4-2-3-5-20(19)16-24/h2-9,14H,10-13,15-16H2,1H3

> <PUBCHEM_IUPAC_INCHIKEY>
JPTWRZCVSGGHPS-UHFFFAOYSA-N

> <PUBCHEM_XLOGP3_AA>
2.1

> <PUBCHEM_EXACT_MASS>
388.18992602

> <PUBCHEM_MOLECULAR_FORMULA>
C23H24N4O2

> <PUBCHEM_MOLECULAR_WEIGHT>
388.5

> <PUBCHEM_OPENEYE_CAN_SMILES>
CC(=O)N1C=CC2=C1C=CC(=C2)N3CCN(C3=O)CCN4CC5=CC=CC=C5C4

> <PUBCHEM_OPENEYE_ISO_SMILES>
CC(=O)N1C=CC2=C1C=CC(=C2)N3CCN(C3=O)CCN4CC5=CC=CC=C5C4

> <PUBCHEM_CACTVS_TPSA>
48.8

> <PUBCHEM_MONOISOTOPIC_WEIGHT>
388.18992602

> <PUBCHEM_TOTAL_CHARGE>
0

> <PUBCHEM_HEAVY_ATOM_COUNT>
29

> <PUBCHEM_ATOM_DEF_STEREO_COUNT>
0

> <PUBCHEM_ATOM_UDEF_STEREO_COUNT>
0

> <PUBCHEM_BOND_DEF_STEREO_COUNT>
0

> <PUBCHEM_BOND_UDEF_STEREO_COUNT>
0

> <PUBCHEM_ISOTOPIC_ATOM_COUNT>
0

> <PUBCHEM_COMPONENT_COUNT>
1

> <PUBCHEM_CACTVS_TAUTO_COUNT>
-1

> <PUBCHEM_COORDINATE_TYPE>
1
5
255

> <PUBCHEM_BONDANNOTATIONS>
13  14  8
13  17  8
14  18  8
16  19  8
16  20  8
17  23  8
18  24  8
19  21  8
20  25  8
21  22  8
21  26  8
22  25  8
23  24  8
26  27  8
6  22  8
6  27  8

$$$$
