10612157
  -OEChem-09292322212D

 37 39  0     1  0  0  0  0  0999 V2000
    6.0682   -1.0000    0.0000 O   0  0  0  0  0  0  0  0  0  0  0  0
    6.0682    1.0000    0.0000 O   0  0  0  0  0  0  0  0  0  0  0  0
    2.5381   -1.0241    0.0000 O   0  0  0  0  0  0  0  0  0  0  0  0
    8.6663   -0.5000    0.0000 N   0  0  0  0  0  0  0  0  0  0  0  0
    6.9343   -0.5000    0.0000 C   0  0  1  0  0  0  0  0  0  0  0  0
    7.8003   -1.0000    0.0000 C   0  0  0  0  0  0  0  0  0  0  0  0
    6.9343    0.5000    0.0000 C   0  0  0  0  0  0  0  0  0  0  0  0
    5.2022   -0.5000    0.0000 C   0  0  0  0  0  0  0  0  0  0  0  0
    5.2022    0.5000    0.0000 C   0  0  0  0  0  0  0  0  0  0  0  0
    9.5323   -1.0000    0.0000 C   0  0  0  0  0  0  0  0  0  0  0  0
   10.3984   -0.5000    0.0000 C   0  0  0  0  0  0  0  0  0  0  0  0
    4.3083   -1.0347    0.0000 C   0  0  0  0  0  0  0  0  0  0  0  0
    4.3083    1.0347    0.0000 C   0  0  0  0  0  0  0  0  0  0  0  0
    3.4022   -0.5208    0.0000 C   0  0  0  0  0  0  0  0  0  0  0  0
    3.4022    0.5208    0.0000 C   0  0  0  0  0  0  0  0  0  0  0  0
   11.2644   -1.0000    0.0000 C   0  0  0  0  0  0  0  0  0  0  0  0
   10.3984    0.5000    0.0000 C   0  0  0  0  0  0  0  0  0  0  0  0
   12.1304   -0.5000    0.0000 C   0  0  0  0  0  0  0  0  0  0  0  0
   11.2644    1.0000    0.0000 C   0  0  0  0  0  0  0  0  0  0  0  0
   12.1304    0.5000    0.0000 C   0  0  0  0  0  0  0  0  0  0  0  0
    6.9343   -1.1200    0.0000 H   0  0  0  0  0  0  0  0  0  0  0  0
    7.4018   -1.4750    0.0000 H   0  0  0  0  0  0  0  0  0  0  0  0
    8.1988   -1.4750    0.0000 H   0  0  0  0  0  0  0  0  0  0  0  0
    7.5449    0.3923    0.0000 H   0  0  0  0  0  0  0  0  0  0  0  0
    7.1463    1.0826    0.0000 H   0  0  0  0  0  0  0  0  0  0  0  0
    8.6663    0.1200    0.0000 H   0  0  0  0  0  0  0  0  0  0  0  0
    9.1338   -1.4750    0.0000 H   0  0  0  0  0  0  0  0  0  0  0  0
    9.9309   -1.4750    0.0000 H   0  0  0  0  0  0  0  0  0  0  0  0
    4.3154   -1.6546    0.0000 H   0  0  0  0  0  0  0  0  0  0  0  0
    4.3154    1.6546    0.0000 H   0  0  0  0  0  0  0  0  0  0  0  0
    2.8665    0.8329    0.0000 H   0  0  0  0  0  0  0  0  0  0  0  0
   11.2644   -1.6200    0.0000 H   0  0  0  0  0  0  0  0  0  0  0  0
    9.8614    0.8100    0.0000 H   0  0  0  0  0  0  0  0  0  0  0  0
   12.6674   -0.8100    0.0000 H   0  0  0  0  0  0  0  0  0  0  0  0
   11.2644    1.6200    0.0000 H   0  0  0  0  0  0  0  0  0  0  0  0
   12.6674    0.8100    0.0000 H   0  0  0  0  0  0  0  0  0  0  0  0
    2.0000   -0.7162    0.0000 H   0  0  0  0  0  0  0  0  0  0  0  0
  1  5  1  0  0  0  0
  1  8  1  0  0  0  0
  2  7  1  0  0  0  0
  2  9  1  0  0  0  0
  3 14  1  0  0  0  0
  3 37  1  0  0  0  0
  4  6  1  0  0  0  0
  4 10  1  0  0  0  0
  4 26  1  0  0  0  0
  5  6  1  6  0  0  0
  5  7  1  0  0  0  0
  5 21  1  0  0  0  0
  6 22  1  0  0  0  0
  6 23  1  0  0  0  0
  7 24  1  0  0  0  0
  7 25  1  0  0  0  0
  8  9  2  0  0  0  0
  8 12  1  0  0  0  0
  9 13  1  0  0  0  0
 10 11  1  0  0  0  0
 10 27  1  0  0  0  0
 10 28  1  0  0  0  0
 11 16  2  0  0  0  0
 11 17  1  0  0  0  0
 12 14  2  0  0  0  0
 12 29  1  0  0  0  0
 13 15  2  0  0  0  0
 13 30  1  0  0  0  0
 14 15  1  0  0  0  0
 15 31  1  0  0  0  0
 16 18  1  0  0  0  0
 16 32  1  0  0  0  0
 17 19  2  0  0  0  0
 17 33  1  0  0  0  0
 18 20  2  0  0  0  0
 18 34  1  0  0  0  0
 19 20  1  0  0  0  0
 19 35  1  0  0  0  0
 20 36  1  0  0  0  0
M  END
> <PUBCHEM_COMPOUND_CID>
10612157

> <PUBCHEM_COMPOUND_CANONICALIZED>
1

> <PUBCHEM_CACTVS_COMPLEXITY>
293

> <PUBCHEM_CACTVS_HBOND_ACCEPTOR>
4

> <PUBCHEM_CACTVS_HBOND_DONOR>
2

> <PUBCHEM_CACTVS_ROTATABLE_BOND>
4

> <PUBCHEM_CACTVS_SUBSKEYS>
AAADceB6MAAAAAAAAAAAAAAAAAAAAAAAAAA0YIAAAAAAAACRQAAAHgAQCAAADBThmAYwBoLABgCAAiBCAACCCAAgIAAIiIAOjIgPJyKGsRuHeCrn0BWauAfQ4AwOAQAACAAAQAACAAAQAACAAAAAAAAAAA==

> <PUBCHEM_IUPAC_OPENEYE_NAME>
(3S)-3-[(benzylamino)methyl]-2,3-dihydro-1,4-benzodioxin-6-ol

> <PUBCHEM_IUPAC_CAS_NAME>
(3S)-3-[[(phenylmethyl)amino]methyl]-2,3-dihydro-1,4-benzodioxin-6-ol

> <PUBCHEM_IUPAC_NAME_MARKUP>
(3<I>S</I>)-3-[(benzylamino)methyl]-2,3-dihydro-1,4-benzodioxin-6-ol

> <PUBCHEM_IUPAC_NAME>
(3S)-3-[(benzylamino)methyl]-2,3-dihydro-1,4-benzodioxin-6-ol

> <PUBCHEM_IUPAC_SYSTEMATIC_NAME>
(3S)-3-[[(phenylmethyl)amino]methyl]-2,3-dihydro-1,4-benzodioxin-6-ol

> <PUBCHEM_IUPAC_TRADITIONAL_NAME>
(3S)-3-[(benzylamino)methyl]-2,3-dihydro-1,4-benzodioxin-6-ol

> <PUBCHEM_IUPAC_INCHI>
InChI=1S/C16H17NO3/c18-13-6-7-15-16(8-13)20-14(11-19-15)10-17-9-12-4-2-1-3-5-12/h1-8,14,17-18H,9-11H2/t14-/m0/s1

> <PUBCHEM_IUPAC_INCHIKEY>
DYWYWIOQKKRAST-AWEZNQCLSA-N

> <PUBCHEM_XLOGP3_AA>
2.4

> <PUBCHEM_EXACT_MASS>
271.12084340

> <PUBCHEM_MOLECULAR_FORMULA>
C16H17NO3

> <PUBCHEM_MOLECULAR_WEIGHT>
271.31

> <PUBCHEM_OPENEYE_CAN_SMILES>
C1C(OC2=C(O1)C=CC(=C2)O)CNCC3=CC=CC=C3

> <PUBCHEM_OPENEYE_ISO_SMILES>
C1[C@@H](OC2=C(O1)C=CC(=C2)O)CNCC3=CC=CC=C3

> <PUBCHEM_CACTVS_TPSA>
50.7

> <PUBCHEM_MONOISOTOPIC_WEIGHT>
271.12084340

> <PUBCHEM_TOTAL_CHARGE>
0

> <PUBCHEM_HEAVY_ATOM_COUNT>
20

> <PUBCHEM_ATOM_DEF_STEREO_COUNT>
1

> <PUBCHEM_ATOM_UDEF_STEREO_COUNT>
0

> <PUBCHEM_BOND_DEF_STEREO_COUNT>
0

> <PUBCHEM_BOND_UDEF_STEREO_COUNT>
0

> <PUBCHEM_ISOTOPIC_ATOM_COUNT>
0

> <PUBCHEM_COMPONENT_COUNT>
1

> <PUBCHEM_CACTVS_TAUTO_COUNT>
-1

> <PUBCHEM_COORDINATE_TYPE>
1
5
255

> <PUBCHEM_BONDANNOTATIONS>
11  16  8
11  17  8
12  14  8
13  15  8
14  15  8
16  18  8
17  19  8
18  20  8
19  20  8
5  6  6
8  12  8
8  9  8
9  13  8

$$$$
