9932385
  -OEChem-09292322152D

 63 66  0     1  0  0  0  0  0999 V2000
   12.4939   -1.6160    0.0000 O   0  0  0  0  0  0  0  0  0  0  0  0
   17.4939    0.1160    0.0000 O   0  0  0  0  0  0  0  0  0  0  0  0
    6.9939    0.9821    0.0000 N   0  0  3  0  0  0  0  0  0  0  0  0
   12.4939    0.1160    0.0000 N   0  0  0  0  0  0  0  0  0  0  0  0
    2.0000    2.4820    0.0000 N   0  0  0  0  0  0  0  0  0  0  0  0
    9.4939    0.1160    0.0000 C   0  0  0  0  0  0  0  0  0  0  0  0
    9.9939   -0.7500    0.0000 C   0  0  0  0  0  0  0  0  0  0  0  0
    9.9939    0.9821    0.0000 C   0  0  0  0  0  0  0  0  0  0  0  0
   11.4939    0.1160    0.0000 C   0  0  0  0  0  0  0  0  0  0  0  0
   10.9939   -0.7500    0.0000 C   0  0  0  0  0  0  0  0  0  0  0  0
   10.9939    0.9821    0.0000 C   0  0  0  0  0  0  0  0  0  0  0  0
    8.4939    0.1160    0.0000 C   0  0  0  0  0  0  0  0  0  0  0  0
    7.9939    0.9821    0.0000 C   0  0  0  0  0  0  0  0  0  0  0  0
    6.4103    1.7868    0.0000 C   0  0  0  0  0  0  0  0  0  0  0  0
    6.4103    0.1773    0.0000 C   0  0  0  0  0  0  0  0  0  0  0  0
    5.4641    1.4820    0.0000 C   0  0  0  0  0  0  0  0  0  0  0  0
    5.4641    0.4821    0.0000 C   0  0  0  0  0  0  0  0  0  0  0  0
   12.9939   -0.7500    0.0000 C   0  0  0  0  0  0  0  0  0  0  0  0
    4.5981    1.9820    0.0000 C   0  0  0  0  0  0  0  0  0  0  0  0
    4.5981   -0.0179    0.0000 C   0  0  0  0  0  0  0  0  0  0  0  0
    3.7320    1.4820    0.0000 C   0  0  0  0  0  0  0  0  0  0  0  0
    3.7320    0.4821    0.0000 C   0  0  0  0  0  0  0  0  0  0  0  0
   13.9939   -0.7500    0.0000 C   0  0  0  0  0  0  0  0  0  0  0  0
   14.4939   -1.6160    0.0000 C   0  0  0  0  0  0  0  0  0  0  0  0
    2.8660    1.9820    0.0000 C   0  0  0  0  0  0  0  0  0  0  0  0
   15.4939   -1.6160    0.0000 C   0  0  0  0  0  0  0  0  0  0  0  0
   15.9939   -0.7500    0.0000 C   0  0  0  0  0  0  0  0  0  0  0  0
   15.9939   -2.4820    0.0000 C   0  0  0  0  0  0  0  0  0  0  0  0
   16.9939   -0.7500    0.0000 C   0  0  0  0  0  0  0  0  0  0  0  0
   16.9939   -2.4820    0.0000 C   0  0  0  0  0  0  0  0  0  0  0  0
   17.4939   -1.6160    0.0000 C   0  0  0  0  0  0  0  0  0  0  0  0
   18.4939    0.1160    0.0000 C   0  0  0  0  0  0  0  0  0  0  0  0
    9.1839   -0.4209    0.0000 H   0  0  0  0  0  0  0  0  0  0  0  0
    9.4113   -0.9621    0.0000 H   0  0  0  0  0  0  0  0  0  0  0  0
   10.1016   -1.3606    0.0000 H   0  0  0  0  0  0  0  0  0  0  0  0
   10.1016    1.5926    0.0000 H   0  0  0  0  0  0  0  0  0  0  0  0
    9.4113    1.1941    0.0000 H   0  0  0  0  0  0  0  0  0  0  0  0
   11.8039   -0.4209    0.0000 H   0  0  0  0  0  0  0  0  0  0  0  0
   10.8863   -1.3606    0.0000 H   0  0  0  0  0  0  0  0  0  0  0  0
   11.5765   -0.9621    0.0000 H   0  0  0  0  0  0  0  0  0  0  0  0
   11.5765    1.1941    0.0000 H   0  0  0  0  0  0  0  0  0  0  0  0
   10.8863    1.5926    0.0000 H   0  0  0  0  0  0  0  0  0  0  0  0
    7.9113   -0.0960    0.0000 H   0  0  0  0  0  0  0  0  0  0  0  0
    8.6016   -0.4946    0.0000 H   0  0  0  0  0  0  0  0  0  0  0  0
    8.5765    1.1941    0.0000 H   0  0  0  0  0  0  0  0  0  0  0  0
    7.8863    1.5926    0.0000 H   0  0  0  0  0  0  0  0  0  0  0  0
   12.8039    0.6530    0.0000 H   0  0  0  0  0  0  0  0  0  0  0  0
    6.9477    2.0960    0.0000 H   0  0  0  0  0  0  0  0  0  0  0  0
    6.1593    2.3537    0.0000 H   0  0  0  0  0  0  0  0  0  0  0  0
    6.1593   -0.3896    0.0000 H   0  0  0  0  0  0  0  0  0  0  0  0
    6.9477   -0.1319    0.0000 H   0  0  0  0  0  0  0  0  0  0  0  0
    4.5981    2.6021    0.0000 H   0  0  0  0  0  0  0  0  0  0  0  0
    4.5981   -0.6379    0.0000 H   0  0  0  0  0  0  0  0  0  0  0  0
    3.1951    0.1721    0.0000 H   0  0  0  0  0  0  0  0  0  0  0  0
   14.3039   -0.2131    0.0000 H   0  0  0  0  0  0  0  0  0  0  0  0
   14.1839   -2.1530    0.0000 H   0  0  0  0  0  0  0  0  0  0  0  0
   15.6839   -0.2131    0.0000 H   0  0  0  0  0  0  0  0  0  0  0  0
   15.6839   -3.0190    0.0000 H   0  0  0  0  0  0  0  0  0  0  0  0
   17.3039   -3.0190    0.0000 H   0  0  0  0  0  0  0  0  0  0  0  0
   18.1139   -1.6160    0.0000 H   0  0  0  0  0  0  0  0  0  0  0  0
   18.4939   -0.5040    0.0000 H   0  0  0  0  0  0  0  0  0  0  0  0
   19.1139    0.1160    0.0000 H   0  0  0  0  0  0  0  0  0  0  0  0
   18.4939    0.7360    0.0000 H   0  0  0  0  0  0  0  0  0  0  0  0
  1 18  2  0  0  0  0
  2 29  1  0  0  0  0
  2 32  1  0  0  0  0
  3 13  1  0  0  0  0
  3 14  1  0  0  0  0
  3 15  1  0  0  0  0
  4  9  1  0  0  0  0
  4 18  1  0  0  0  0
  4 47  1  0  0  0  0
  5 25  3  0  0  0  0
  6  7  1  0  0  0  0
  6  8  1  0  0  0  0
  6 12  1  0  0  0  0
  6 33  1  0  0  0  0
  7 10  1  0  0  0  0
  7 34  1  0  0  0  0
  7 35  1  0  0  0  0
  8 11  1  0  0  0  0
  8 36  1  0  0  0  0
  8 37  1  0  0  0  0
  9 10  1  0  0  0  0
  9 11  1  0  0  0  0
  9 38  1  0  0  0  0
 10 39  1  0  0  0  0
 10 40  1  0  0  0  0
 11 41  1  0  0  0  0
 11 42  1  0  0  0  0
 12 13  1  0  0  0  0
 12 43  1  0  0  0  0
 12 44  1  0  0  0  0
 13 45  1  0  0  0  0
 13 46  1  0  0  0  0
 14 16  1  0  0  0  0
 14 48  1  0  0  0  0
 14 49  1  0  0  0  0
 15 17  1  0  0  0  0
 15 50  1  0  0  0  0
 15 51  1  0  0  0  0
 16 17  2  0  0  0  0
 16 19  1  0  0  0  0
 17 20  1  0  0  0  0
 18 23  1  0  0  0  0
 19 21  2  0  0  0  0
 19 52  1  0  0  0  0
 20 22  2  0  0  0  0
 20 53  1  0  0  0  0
 21 22  1  0  0  0  0
 21 25  1  0  0  0  0
 22 54  1  0  0  0  0
 23 24  2  0  0  0  0
 23 55  1  0  0  0  0
 24 26  1  0  0  0  0
 24 56  1  0  0  0  0
 26 27  2  0  0  0  0
 26 28  1  0  0  0  0
 27 29  1  0  0  0  0
 27 57  1  0  0  0  0
 28 30  2  0  0  0  0
 28 58  1  0  0  0  0
 29 31  2  0  0  0  0
 30 31  1  0  0  0  0
 30 59  1  0  0  0  0
 31 60  1  0  0  0  0
 32 61  1  0  0  0  0
 32 62  1  0  0  0  0
 32 63  1  0  0  0  0
M  END
> <PUBCHEM_COMPOUND_CID>
9932385

> <PUBCHEM_COMPOUND_CANONICALIZED>
1

> <PUBCHEM_CACTVS_COMPLEXITY>
690

> <PUBCHEM_CACTVS_HBOND_ACCEPTOR>
4

> <PUBCHEM_CACTVS_HBOND_DONOR>
1

> <PUBCHEM_CACTVS_ROTATABLE_BOND>
7

> <PUBCHEM_CACTVS_SUBSKEYS>
AAADceB7MAAAAAAAAAAAAAAAAAAAAWAAAAAwYMAAAAAAAFgBQAAAHgAQAAAADSzBmAYyBoPABACYBiFSEACiCAAgIAAIiIAODMgMpiKEsRuEMChk1hGIqY+QwNAOwAADAAAQAACQAAYAACAAAAAAAAAAAA==

> <PUBCHEM_IUPAC_OPENEYE_NAME>
(E)-N-[4-[2-(5-cyanoisoindolin-2-yl)ethyl]cyclohexyl]-3-(3-methoxyphenyl)prop-2-enamide

> <PUBCHEM_IUPAC_CAS_NAME>
(E)-N-[4-[2-(5-cyano-1,3-dihydroisoindol-2-yl)ethyl]cyclohexyl]-3-(3-methoxyphenyl)-2-propenamide

> <PUBCHEM_IUPAC_NAME_MARKUP>
(<I>E</I>)-<I>N</I>-[4-[2-(5-cyano-1,3-dihydroisoindol-2-yl)ethyl]cyclohexyl]-3-(3-methoxyphenyl)prop-2-enamide

> <PUBCHEM_IUPAC_NAME>
(E)-N-[4-[2-(5-cyano-1,3-dihydroisoindol-2-yl)ethyl]cyclohexyl]-3-(3-methoxyphenyl)prop-2-enamide

> <PUBCHEM_IUPAC_SYSTEMATIC_NAME>
(E)-N-[4-[2-(5-cyano-1,3-dihydroisoindol-2-yl)ethyl]cyclohexyl]-3-(3-methoxyphenyl)prop-2-enamide

> <PUBCHEM_IUPAC_TRADITIONAL_NAME>
(E)-N-[4-[2-(5-cyanoisoindolin-2-yl)ethyl]cyclohexyl]-3-(3-methoxyphenyl)acrylamide

> <PUBCHEM_IUPAC_INCHI>
InChI=1S/C27H31N3O2/c1-32-26-4-2-3-21(16-26)8-12-27(31)29-25-10-6-20(7-11-25)13-14-30-18-23-9-5-22(17-28)15-24(23)19-30/h2-5,8-9,12,15-16,20,25H,6-7,10-11,13-14,18-19H2,1H3,(H,29,31)/b12-8+

> <PUBCHEM_IUPAC_INCHIKEY>
OJCBIYVJAWOBLI-XYOKQWHBSA-N

> <PUBCHEM_XLOGP3_AA>
4.3

> <PUBCHEM_EXACT_MASS>
429.24162724

> <PUBCHEM_MOLECULAR_FORMULA>
C27H31N3O2

> <PUBCHEM_MOLECULAR_WEIGHT>
429.6

> <PUBCHEM_OPENEYE_CAN_SMILES>
COC1=CC=CC(=C1)C=CC(=O)NC2CCC(CC2)CCN3CC4=C(C3)C=C(C=C4)C#N

> <PUBCHEM_OPENEYE_ISO_SMILES>
COC1=CC=CC(=C1)/C=C/C(=O)NC2CCC(CC2)CCN3CC4=C(C3)C=C(C=C4)C#N

> <PUBCHEM_CACTVS_TPSA>
65.4

> <PUBCHEM_MONOISOTOPIC_WEIGHT>
429.24162724

> <PUBCHEM_TOTAL_CHARGE>
0

> <PUBCHEM_HEAVY_ATOM_COUNT>
32

> <PUBCHEM_ATOM_DEF_STEREO_COUNT>
0

> <PUBCHEM_ATOM_UDEF_STEREO_COUNT>
0

> <PUBCHEM_BOND_DEF_STEREO_COUNT>
1

> <PUBCHEM_BOND_UDEF_STEREO_COUNT>
0

> <PUBCHEM_ISOTOPIC_ATOM_COUNT>
0

> <PUBCHEM_COMPONENT_COUNT>
1

> <PUBCHEM_CACTVS_TAUTO_COUNT>
-1

> <PUBCHEM_COORDINATE_TYPE>
1
5
255

> <PUBCHEM_BONDANNOTATIONS>
16  17  8
16  19  8
17  20  8
19  21  8
20  22  8
21  22  8
26  27  8
26  28  8
27  29  8
28  30  8
29  31  8
30  31  8

$$$$
