145969667
  -OEChem-09292322382D

 52 53  0     1  0  0  0  0  0999 V2000
    2.0799   -5.8090    0.0000 O   0  0  0  0  0  0  0  0  0  0  0  0
    3.3120   -1.2702    0.0000 N   0  0  3  0  0  0  0  0  0  0  0  0
    3.8120   -2.8090    0.0000 C   0  0  3  0  0  0  0  0  0  0  0  0
    3.0030   -2.2213    0.0000 C   0  0  0  0  0  0  0  0  0  0  0  0
    4.6210   -2.2213    0.0000 C   0  0  0  0  0  0  0  0  0  0  0  0
    4.3120   -1.2702    0.0000 C   0  0  0  0  0  0  0  0  0  0  0  0
    2.7242   -0.4612    0.0000 C   0  0  0  0  0  0  0  0  0  0  0  0
    3.8120   -3.8090    0.0000 C   0  0  0  0  0  0  0  0  0  0  0  0
    3.1309    0.4524    0.0000 C   0  0  0  0  0  0  0  0  0  0  0  0
    2.5431    1.2614    0.0000 C   0  0  0  0  0  0  0  0  0  0  0  0
    2.9499    2.1749    0.0000 C   0  0  0  0  0  0  0  0  0  0  0  0
    2.3621    2.9839    0.0000 C   0  0  0  0  0  0  0  0  0  0  0  0
    2.9460   -4.3090    0.0000 C   0  0  0  0  0  0  0  0  0  0  0  0
    4.6780   -4.3090    0.0000 C   0  0  0  0  0  0  0  0  0  0  0  0
    2.7688    3.8975    0.0000 C   0  0  0  0  0  0  0  0  0  0  0  0
    2.1810    4.7065    0.0000 C   0  0  0  0  0  0  0  0  0  0  0  0
    2.9460   -5.3090    0.0000 C   0  0  0  0  0  0  0  0  0  0  0  0
    4.6780   -5.3090    0.0000 C   0  0  0  0  0  0  0  0  0  0  0  0
    3.8120   -5.8090    0.0000 C   0  0  0  0  0  0  0  0  0  0  0  0
    2.5878    5.6200    0.0000 C   0  0  0  0  0  0  0  0  0  0  0  0
    2.0000    6.4290    0.0000 C   0  0  0  0  0  0  0  0  0  0  0  0
    4.3644   -3.0905    0.0000 H   0  0  0  0  0  0  0  0  0  0  0  0
    2.4366   -1.9691    0.0000 H   0  0  0  0  0  0  0  0  0  0  0  0
    2.6930   -2.7582    0.0000 H   0  0  0  0  0  0  0  0  0  0  0  0
    4.9310   -2.7582    0.0000 H   0  0  0  0  0  0  0  0  0  0  0  0
    5.1874   -1.9691    0.0000 H   0  0  0  0  0  0  0  0  0  0  0  0
    4.9184   -1.1413    0.0000 H   0  0  0  0  0  0  0  0  0  0  0  0
    4.2472   -0.6536    0.0000 H   0  0  0  0  0  0  0  0  0  0  0  0
    2.2102   -0.1145    0.0000 H   0  0  0  0  0  0  0  0  0  0  0  0
    2.2935   -0.9072    0.0000 H   0  0  0  0  0  0  0  0  0  0  0  0
    3.6449    0.1056    0.0000 H   0  0  0  0  0  0  0  0  0  0  0  0
    3.5616    0.8983    0.0000 H   0  0  0  0  0  0  0  0  0  0  0  0
    2.0291    1.6081    0.0000 H   0  0  0  0  0  0  0  0  0  0  0  0
    2.1125    0.8154    0.0000 H   0  0  0  0  0  0  0  0  0  0  0  0
    3.4639    1.8282    0.0000 H   0  0  0  0  0  0  0  0  0  0  0  0
    3.3806    2.6209    0.0000 H   0  0  0  0  0  0  0  0  0  0  0  0
    1.8481    3.3306    0.0000 H   0  0  0  0  0  0  0  0  0  0  0  0
    1.9314    2.5379    0.0000 H   0  0  0  0  0  0  0  0  0  0  0  0
    2.4090   -3.9990    0.0000 H   0  0  0  0  0  0  0  0  0  0  0  0
    5.2149   -3.9990    0.0000 H   0  0  0  0  0  0  0  0  0  0  0  0
    3.2828    3.5508    0.0000 H   0  0  0  0  0  0  0  0  0  0  0  0
    3.1995    4.3435    0.0000 H   0  0  0  0  0  0  0  0  0  0  0  0
    1.6670    5.0532    0.0000 H   0  0  0  0  0  0  0  0  0  0  0  0
    1.7504    4.2605    0.0000 H   0  0  0  0  0  0  0  0  0  0  0  0
    5.2149   -5.6190    0.0000 H   0  0  0  0  0  0  0  0  0  0  0  0
    3.8120   -6.4290    0.0000 H   0  0  0  0  0  0  0  0  0  0  0  0
    3.1018    5.2733    0.0000 H   0  0  0  0  0  0  0  0  0  0  0  0
    3.0185    6.0660    0.0000 H   0  0  0  0  0  0  0  0  0  0  0  0
    2.5016    6.7935    0.0000 H   0  0  0  0  0  0  0  0  0  0  0  0
    1.6356    6.9306    0.0000 H   0  0  0  0  0  0  0  0  0  0  0  0
    1.4984    6.0646    0.0000 H   0  0  0  0  0  0  0  0  0  0  0  0
    2.0799   -6.4290    0.0000 H   0  0  0  0  0  0  0  0  0  0  0  0
  1 17  1  0  0  0  0
  1 52  1  0  0  0  0
  2  4  1  0  0  0  0
  2  6  1  0  0  0  0
  2  7  1  0  0  0  0
  3  4  1  0  0  0  0
  3  5  1  0  0  0  0
  3  8  1  0  0  0  0
  3 22  1  0  0  0  0
  4 23  1  0  0  0  0
  4 24  1  0  0  0  0
  5  6  1  0  0  0  0
  5 25  1  0  0  0  0
  5 26  1  0  0  0  0
  6 27  1  0  0  0  0
  6 28  1  0  0  0  0
  7  9  1  0  0  0  0
  7 29  1  0  0  0  0
  7 30  1  0  0  0  0
  8 13  2  0  0  0  0
  8 14  1  0  0  0  0
  9 10  1  0  0  0  0
  9 31  1  0  0  0  0
  9 32  1  0  0  0  0
 10 11  1  0  0  0  0
 10 33  1  0  0  0  0
 10 34  1  0  0  0  0
 11 12  1  0  0  0  0
 11 35  1  0  0  0  0
 11 36  1  0  0  0  0
 12 15  1  0  0  0  0
 12 37  1  0  0  0  0
 12 38  1  0  0  0  0
 13 17  1  0  0  0  0
 13 39  1  0  0  0  0
 14 18  2  0  0  0  0
 14 40  1  0  0  0  0
 15 16  1  0  0  0  0
 15 41  1  0  0  0  0
 15 42  1  0  0  0  0
 16 20  1  0  0  0  0
 16 43  1  0  0  0  0
 16 44  1  0  0  0  0
 17 19  2  0  0  0  0
 18 19  1  0  0  0  0
 18 45  1  0  0  0  0
 19 46  1  0  0  0  0
 20 21  1  0  0  0  0
 20 47  1  0  0  0  0
 20 48  1  0  0  0  0
 21 49  1  0  0  0  0
 21 50  1  0  0  0  0
 21 51  1  0  0  0  0
M  END
> <PUBCHEM_COMPOUND_CID>
145969667

> <PUBCHEM_COMPOUND_CANONICALIZED>
1

> <PUBCHEM_CACTVS_COMPLEXITY>
268

> <PUBCHEM_CACTVS_HBOND_ACCEPTOR>
2

> <PUBCHEM_CACTVS_HBOND_DONOR>
1

> <PUBCHEM_CACTVS_ROTATABLE_BOND>
9

> <PUBCHEM_CACTVS_SUBSKEYS>
AAADceB6IAAAAAAAAAAAAAAAAAAAAWAAAAAwAAAAAAAAAAABAAAAHgAACAAADQTBmAQyBoMAAgCAAiBCAAACAAAgIAAIiAAOCIgIJiKCkROEcAAkwBGImAeQ0PIOgAABAAAAAAAAAAIAAAAAAAAAAAAAAA==

> <PUBCHEM_IUPAC_OPENEYE_NAME>
3-(1-nonylpyrrolidin-3-yl)phenol

> <PUBCHEM_IUPAC_CAS_NAME>
3-(1-nonyl-3-pyrrolidinyl)phenol

> <PUBCHEM_IUPAC_NAME_MARKUP>
3-(1-nonylpyrrolidin-3-yl)phenol

> <PUBCHEM_IUPAC_NAME>
3-(1-nonylpyrrolidin-3-yl)phenol

> <PUBCHEM_IUPAC_SYSTEMATIC_NAME>
3-(1-nonylpyrrolidin-3-yl)phenol

> <PUBCHEM_IUPAC_TRADITIONAL_NAME>
3-(1-nonylpyrrolidin-3-yl)phenol

> <PUBCHEM_IUPAC_INCHI>
InChI=1S/C19H31NO/c1-2-3-4-5-6-7-8-13-20-14-12-18(16-20)17-10-9-11-19(21)15-17/h9-11,15,18,21H,2-8,12-14,16H2,1H3

> <PUBCHEM_IUPAC_INCHIKEY>
UTQIQWGFEQDQAG-UHFFFAOYSA-N

> <PUBCHEM_XLOGP3_AA>
5.7

> <PUBCHEM_EXACT_MASS>
289.240564612

> <PUBCHEM_MOLECULAR_FORMULA>
C19H31NO

> <PUBCHEM_MOLECULAR_WEIGHT>
289.5

> <PUBCHEM_OPENEYE_CAN_SMILES>
CCCCCCCCCN1CCC(C1)C2=CC(=CC=C2)O

> <PUBCHEM_OPENEYE_ISO_SMILES>
CCCCCCCCCN1CCC(C1)C2=CC(=CC=C2)O

> <PUBCHEM_CACTVS_TPSA>
23.5

> <PUBCHEM_MONOISOTOPIC_WEIGHT>
289.240564612

> <PUBCHEM_TOTAL_CHARGE>
0

> <PUBCHEM_HEAVY_ATOM_COUNT>
21

> <PUBCHEM_ATOM_DEF_STEREO_COUNT>
0

> <PUBCHEM_ATOM_UDEF_STEREO_COUNT>
1

> <PUBCHEM_BOND_DEF_STEREO_COUNT>
0

> <PUBCHEM_BOND_UDEF_STEREO_COUNT>
0

> <PUBCHEM_ISOTOPIC_ATOM_COUNT>
0

> <PUBCHEM_COMPONENT_COUNT>
1

> <PUBCHEM_CACTVS_TAUTO_COUNT>
-1

> <PUBCHEM_COORDINATE_TYPE>
1
5
255

> <PUBCHEM_BONDANNOTATIONS>
13  17  8
14  18  8
17  19  8
18  19  8
3  8  3
8  13  8
8  14  8

$$$$
