118736396
  -OEChem-09292322352D

 63 67  0     0  0  0  0  0  0999 V2000
   11.9625    5.9725    0.0000 Cl  0  0  0  0  0  0  0  0  0  0  0  0
    9.0094   -3.6140    0.0000 O   0  0  0  0  0  0  0  0  0  0  0  0
    4.6397   -5.9725    0.0000 O   0  0  0  0  0  0  0  0  0  0  0  0
    2.0000   -3.6140    0.0000 O   0  0  0  0  0  0  0  0  0  0  0  0
   10.1745    0.2451    0.0000 N   0  0  0  0  0  0  0  0  0  0  0  0
   10.7705    2.1542    0.0000 N   0  0  0  0  0  0  0  0  0  0  0  0
    7.3291   -3.0570    0.0000 N   0  0  0  0  0  0  0  0  0  0  0  0
    6.0047   -4.2403    0.0000 N   0  0  0  0  0  0  0  0  0  0  0  0
    5.5047   -2.7015    0.0000 N   0  0  0  0  0  0  0  0  0  0  0  0
    3.6803   -3.0570    0.0000 N   0  0  0  0  0  0  0  0  0  0  0  0
    3.2992   -4.8164    0.0000 N   0  0  0  0  0  0  0  0  0  0  0  0
    9.4968    0.9804    0.0000 C   0  0  0  0  0  0  0  0  0  0  0  0
   11.1502    0.4643    0.0000 C   0  0  0  0  0  0  0  0  0  0  0  0
    9.8765   -0.7095    0.0000 C   0  0  0  0  0  0  0  0  0  0  0  0
    9.7948    1.9350    0.0000 C   0  0  0  0  0  0  0  0  0  0  0  0
   11.4482    1.4189    0.0000 C   0  0  0  0  0  0  0  0  0  0  0  0
    8.9008   -0.9287    0.0000 C   0  0  0  0  0  0  0  0  0  0  0  0
    8.6028   -1.8832    0.0000 C   0  0  0  0  0  0  0  0  0  0  0  0
    7.6271   -2.1025    0.0000 C   0  0  0  0  0  0  0  0  0  0  0  0
   11.0685    3.1088    0.0000 C   0  0  0  0  0  0  0  0  0  0  0  0
    6.3137   -3.2893    0.0000 C   0  0  0  0  0  0  0  0  0  0  0  0
    5.0047   -4.2403    0.0000 C   0  0  0  0  0  0  0  0  0  0  0  0
    4.6957   -3.2893    0.0000 C   0  0  0  0  0  0  0  0  0  0  0  0
    8.0321   -3.8257    0.0000 C   0  0  0  0  0  0  0  0  0  0  0  0
   12.0442    3.3280    0.0000 C   0  0  0  0  0  0  0  0  0  0  0  0
   10.3908    3.8442    0.0000 C   0  0  0  0  0  0  0  0  0  0  0  0
    6.6897   -5.0251    0.0000 C   0  0  0  0  0  0  0  0  0  0  0  0
    7.7102   -4.8164    0.0000 C   0  0  0  0  0  0  0  0  0  0  0  0
    4.3197   -5.0251    0.0000 C   0  0  0  0  0  0  0  0  0  0  0  0
    2.9773   -3.8257    0.0000 C   0  0  0  0  0  0  0  0  0  0  0  0
   12.3422    4.2826    0.0000 C   0  0  0  0  0  0  0  0  0  0  0  0
   10.6888    4.7987    0.0000 C   0  0  0  0  0  0  0  0  0  0  0  0
    3.3823   -2.1025    0.0000 C   0  0  0  0  0  0  0  0  0  0  0  0
   11.6645    5.0179    0.0000 C   0  0  0  0  0  0  0  0  0  0  0  0
    2.6330   -5.5621    0.0000 C   0  0  0  0  0  0  0  0  0  0  0  0
    8.9460    1.2652    0.0000 H   0  0  0  0  0  0  0  0  0  0  0  0
    9.1208    0.4875    0.0000 H   0  0  0  0  0  0  0  0  0  0  0  0
   11.1790   -0.1550    0.0000 H   0  0  0  0  0  0  0  0  0  0  0  0
   11.7651    0.3851    0.0000 H   0  0  0  0  0  0  0  0  0  0  0  0
    9.9053   -1.3288    0.0000 H   0  0  0  0  0  0  0  0  0  0  0  0
   10.4914   -0.7887    0.0000 H   0  0  0  0  0  0  0  0  0  0  0  0
    9.7660    2.5543    0.0000 H   0  0  0  0  0  0  0  0  0  0  0  0
    9.1799    2.0142    0.0000 H   0  0  0  0  0  0  0  0  0  0  0  0
   11.9989    1.1341    0.0000 H   0  0  0  0  0  0  0  0  0  0  0  0
   11.8242    1.9118    0.0000 H   0  0  0  0  0  0  0  0  0  0  0  0
    8.8720   -0.3094    0.0000 H   0  0  0  0  0  0  0  0  0  0  0  0
    8.2859   -0.8495    0.0000 H   0  0  0  0  0  0  0  0  0  0  0  0
    8.6316   -2.5026    0.0000 H   0  0  0  0  0  0  0  0  0  0  0  0
    9.2177   -1.9624    0.0000 H   0  0  0  0  0  0  0  0  0  0  0  0
    7.5983   -1.4831    0.0000 H   0  0  0  0  0  0  0  0  0  0  0  0
    7.0122   -2.0233    0.0000 H   0  0  0  0  0  0  0  0  0  0  0  0
   12.4643    2.8721    0.0000 H   0  0  0  0  0  0  0  0  0  0  0  0
    9.7859    3.7082    0.0000 H   0  0  0  0  0  0  0  0  0  0  0  0
    6.4913   -5.6125    0.0000 H   0  0  0  0  0  0  0  0  0  0  0  0
    8.1233   -5.2787    0.0000 H   0  0  0  0  0  0  0  0  0  0  0  0
   12.9471    4.4185    0.0000 H   0  0  0  0  0  0  0  0  0  0  0  0
   10.2686    5.2546    0.0000 H   0  0  0  0  0  0  0  0  0  0  0  0
    3.9741   -1.9177    0.0000 H   0  0  0  0  0  0  0  0  0  0  0  0
    3.1975   -1.5106    0.0000 H   0  0  0  0  0  0  0  0  0  0  0  0
    2.7904   -2.2872    0.0000 H   0  0  0  0  0  0  0  0  0  0  0  0
    2.1706   -5.1490    0.0000 H   0  0  0  0  0  0  0  0  0  0  0  0
    2.2199   -6.0244    0.0000 H   0  0  0  0  0  0  0  0  0  0  0  0
    3.0953   -5.9752    0.0000 H   0  0  0  0  0  0  0  0  0  0  0  0
  1 34  1  0  0  0  0
  2 24  2  0  0  0  0
  3 29  2  0  0  0  0
  4 30  2  0  0  0  0
  5 12  1  0  0  0  0
  5 13  1  0  0  0  0
  5 14  1  0  0  0  0
  6 15  1  0  0  0  0
  6 16  1  0  0  0  0
  6 20  1  0  0  0  0
  7 19  1  0  0  0  0
  7 21  1  0  0  0  0
  7 24  1  0  0  0  0
  8 21  1  0  0  0  0
  8 22  1  0  0  0  0
  8 27  1  0  0  0  0
  9 21  2  0  0  0  0
  9 23  1  0  0  0  0
 10 23  1  0  0  0  0
 10 30  1  0  0  0  0
 10 33  1  0  0  0  0
 11 29  1  0  0  0  0
 11 30  1  0  0  0  0
 11 35  1  0  0  0  0
 12 15  1  0  0  0  0
 12 36  1  0  0  0  0
 12 37  1  0  0  0  0
 13 16  1  0  0  0  0
 13 38  1  0  0  0  0
 13 39  1  0  0  0  0
 14 17  1  0  0  0  0
 14 40  1  0  0  0  0
 14 41  1  0  0  0  0
 15 42  1  0  0  0  0
 15 43  1  0  0  0  0
 16 44  1  0  0  0  0
 16 45  1  0  0  0  0
 17 18  1  0  0  0  0
 17 46  1  0  0  0  0
 17 47  1  0  0  0  0
 18 19  1  0  0  0  0
 18 48  1  0  0  0  0
 18 49  1  0  0  0  0
 19 50  1  0  0  0  0
 19 51  1  0  0  0  0
 20 25  2  0  0  0  0
 20 26  1  0  0  0  0
 22 23  2  0  0  0  0
 22 29  1  0  0  0  0
 24 28  1  0  0  0  0
 25 31  1  0  0  0  0
 25 52  1  0  0  0  0
 26 32  2  0  0  0  0
 26 53  1  0  0  0  0
 27 28  2  0  0  0  0
 27 54  1  0  0  0  0
 28 55  1  0  0  0  0
 31 34  2  0  0  0  0
 31 56  1  0  0  0  0
 32 34  1  0  0  0  0
 32 57  1  0  0  0  0
 33 58  1  0  0  0  0
 33 59  1  0  0  0  0
 33 60  1  0  0  0  0
 35 61  1  0  0  0  0
 35 62  1  0  0  0  0
 35 63  1  0  0  0  0
M  END
> <PUBCHEM_COMPOUND_CID>
118736396

> <PUBCHEM_COMPOUND_CANONICALIZED>
1

> <PUBCHEM_CACTVS_COMPLEXITY>
856

> <PUBCHEM_CACTVS_HBOND_ACCEPTOR>
6

> <PUBCHEM_CACTVS_HBOND_DONOR>
0

> <PUBCHEM_CACTVS_ROTATABLE_BOND>
6

> <PUBCHEM_CACTVS_SUBSKEYS>
AAADceB7sAAEAAAAAAAAAAAAAAAAAWAAAAA8WIEAAAAAAFgBwAAAHgIAAAAACArBliQz8JcMEACoASd2dACCgC0nF6AJ2AGodsiIaCrB27GUIIhohyLIyOcQAAAAAABAAAAAAAAAAIAAAAAAAAAAAAAAAA==

> <PUBCHEM_IUPAC_OPENEYE_NAME>
9-[4-[4-(4-chlorophenyl)piperazin-1-yl]butyl]-1,3-dimethyl-purino[7,8-a]pyrimidine-2,4,8-trione

> <PUBCHEM_IUPAC_CAS_NAME>
9-[4-[4-(4-chlorophenyl)-1-piperazinyl]butyl]-1,3-dimethylpurino[7,8-a]pyrimidine-2,4,8-trione

> <PUBCHEM_IUPAC_NAME_MARKUP>
9-[4-[4-(4-chlorophenyl)piperazin-1-yl]butyl]-1,3-dimethylpurino[7,8-a]pyrimidine-2,4,8-trione

> <PUBCHEM_IUPAC_NAME>
9-[4-[4-(4-chlorophenyl)piperazin-1-yl]butyl]-1,3-dimethylpurino[7,8-a]pyrimidine-2,4,8-trione

> <PUBCHEM_IUPAC_SYSTEMATIC_NAME>
9-[4-[4-(4-chlorophenyl)piperazin-1-yl]butyl]-1,3-dimethyl-purino[7,8-a]pyrimidine-2,4,8-trione

> <PUBCHEM_IUPAC_TRADITIONAL_NAME>
9-[4-[4-(4-chlorophenyl)piperazino]butyl]-1,3-dimethyl-purino[7,8-a]pyrimidine-2,4,8-trione

> <PUBCHEM_IUPAC_INCHI>
InChI=1S/C24H28ClN7O3/c1-27-21-20(22(34)28(2)24(27)35)32-12-9-19(33)31(23(32)26-21)11-4-3-10-29-13-15-30(16-14-29)18-7-5-17(25)6-8-18/h5-9,12H,3-4,10-11,13-16H2,1-2H3

> <PUBCHEM_IUPAC_INCHIKEY>
HISOESWRZZNGEY-UHFFFAOYSA-N

> <PUBCHEM_XLOGP3_AA>
2.2

> <PUBCHEM_EXACT_MASS>
497.1942155

> <PUBCHEM_MOLECULAR_FORMULA>
C24H28ClN7O3

> <PUBCHEM_MOLECULAR_WEIGHT>
498.0

> <PUBCHEM_OPENEYE_CAN_SMILES>
CN1C2=C(C(=O)N(C1=O)C)N3C=CC(=O)N(C3=N2)CCCCN4CCN(CC4)C5=CC=C(C=C5)Cl

> <PUBCHEM_OPENEYE_ISO_SMILES>
CN1C2=C(C(=O)N(C1=O)C)N3C=CC(=O)N(C3=N2)CCCCN4CCN(CC4)C5=CC=C(C=C5)Cl

> <PUBCHEM_CACTVS_TPSA>
85.2

> <PUBCHEM_MONOISOTOPIC_WEIGHT>
497.1942155

> <PUBCHEM_TOTAL_CHARGE>
0

> <PUBCHEM_HEAVY_ATOM_COUNT>
35

> <PUBCHEM_ATOM_DEF_STEREO_COUNT>
0

> <PUBCHEM_ATOM_UDEF_STEREO_COUNT>
0

> <PUBCHEM_BOND_DEF_STEREO_COUNT>
0

> <PUBCHEM_BOND_UDEF_STEREO_COUNT>
0

> <PUBCHEM_ISOTOPIC_ATOM_COUNT>
0

> <PUBCHEM_COMPONENT_COUNT>
1

> <PUBCHEM_CACTVS_TAUTO_COUNT>
-1

> <PUBCHEM_COORDINATE_TYPE>
1
5
255

> <PUBCHEM_BONDANNOTATIONS>
10  23  8
10  30  8
11  29  8
11  30  8
20  25  8
20  26  8
22  23  8
22  29  8
24  28  8
25  31  8
26  32  8
27  28  8
31  34  8
32  34  8
7  21  8
7  24  8
8  21  8
8  22  8
8  27  8
9  21  8
9  23  8

$$$$
