10718592
  -OEChem-09292322502D

 67 71  0     0  0  0  0  0  0999 V2000
   11.1241   -2.9468    0.0000 O   0  0  0  0  0  0  0  0  0  0  0  0
    4.3211    1.1421    0.0000 O   0  0  0  0  0  0  0  0  0  0  0  0
    8.5458   -0.6333    0.0000 N   0  0  0  0  0  0  0  0  0  0  0  0
   10.5028   -1.0458    0.0000 N   0  0  0  0  0  0  0  0  0  0  0  0
    4.6783    2.8369    0.0000 N   0  0  0  0  0  0  0  0  0  0  0  0
    8.8564   -1.5838    0.0000 C   0  0  0  0  0  0  0  0  0  0  0  0
    9.2136    0.1110    0.0000 C   0  0  0  0  0  0  0  0  0  0  0  0
    9.8349   -1.7901    0.0000 C   0  0  0  0  0  0  0  0  0  0  0  0
   10.1921   -0.0952    0.0000 C   0  0  0  0  0  0  0  0  0  0  0  0
    7.5673   -0.4271    0.0000 C   0  0  0  0  0  0  0  0  0  0  0  0
   11.4813   -1.2520    0.0000 C   0  0  0  0  0  0  0  0  0  0  0  0
    7.2566    0.5234    0.0000 C   0  0  0  0  0  0  0  0  0  0  0  0
    5.2619    3.6416    0.0000 C   0  0  0  0  0  0  0  0  0  0  0  0
    4.6783    4.4464    0.0000 C   0  0  0  0  0  0  0  0  0  0  0  0
    3.7320    3.1416    0.0000 C   0  0  0  0  0  0  0  0  0  0  0  0
    3.7320    4.1416    0.0000 C   0  0  0  0  0  0  0  0  0  0  0  0
   11.7920   -2.2025    0.0000 C   0  0  0  0  0  0  0  0  0  0  0  0
    6.2781    0.7296    0.0000 C   0  0  0  0  0  0  0  0  0  0  0  0
    5.9674    1.6802    0.0000 C   0  0  0  0  0  0  0  0  0  0  0  0
   12.1491   -0.5077    0.0000 C   0  0  0  0  0  0  0  0  0  0  0  0
    4.9889    1.8864    0.0000 C   0  0  0  0  0  0  0  0  0  0  0  0
    7.9244    1.2677    0.0000 C   0  0  0  0  0  0  0  0  0  0  0  0
    6.6353    2.4245    0.0000 C   0  0  0  0  0  0  0  0  0  0  0  0
    2.8660    2.6416    0.0000 C   0  0  0  0  0  0  0  0  0  0  0  0
    2.8660    4.6416    0.0000 C   0  0  0  0  0  0  0  0  0  0  0  0
    7.6138    2.2182    0.0000 C   0  0  0  0  0  0  0  0  0  0  0  0
   12.7705   -2.4087    0.0000 C   0  0  0  0  0  0  0  0  0  0  0  0
   13.1276   -0.7139    0.0000 C   0  0  0  0  0  0  0  0  0  0  0  0
   13.4383   -1.6644    0.0000 C   0  0  0  0  0  0  0  0  0  0  0  0
    2.0000    3.1416    0.0000 C   0  0  0  0  0  0  0  0  0  0  0  0
    2.0000    4.1416    0.0000 C   0  0  0  0  0  0  0  0  0  0  0  0
   11.4348   -3.8973    0.0000 C   0  0  0  0  0  0  0  0  0  0  0  0
   10.7669   -4.6416    0.0000 C   0  0  0  0  0  0  0  0  0  0  0  0
   12.4133   -4.1035    0.0000 C   0  0  0  0  0  0  0  0  0  0  0  0
    8.2426   -1.6712    0.0000 H   0  0  0  0  0  0  0  0  0  0  0  0
    8.8359   -2.2035    0.0000 H   0  0  0  0  0  0  0  0  0  0  0  0
    9.4449    0.6862    0.0000 H   0  0  0  0  0  0  0  0  0  0  0  0
    8.6873    0.4386    0.0000 H   0  0  0  0  0  0  0  0  0  0  0  0
    9.6037   -2.3653    0.0000 H   0  0  0  0  0  0  0  0  0  0  0  0
   10.3613   -2.1177    0.0000 H   0  0  0  0  0  0  0  0  0  0  0  0
   10.8059   -0.0079    0.0000 H   0  0  0  0  0  0  0  0  0  0  0  0
   10.2127    0.5244    0.0000 H   0  0  0  0  0  0  0  0  0  0  0  0
    6.9534   -0.5145    0.0000 H   0  0  0  0  0  0  0  0  0  0  0  0
    7.5467   -1.0468    0.0000 H   0  0  0  0  0  0  0  0  0  0  0  0
    5.7227    3.2269    0.0000 H   0  0  0  0  0  0  0  0  0  0  0  0
    5.7227    4.0564    0.0000 H   0  0  0  0  0  0  0  0  0  0  0  0
    5.2156    4.7556    0.0000 H   0  0  0  0  0  0  0  0  0  0  0  0
    4.4272    5.0133    0.0000 H   0  0  0  0  0  0  0  0  0  0  0  0
    5.8640    0.2682    0.0000 H   0  0  0  0  0  0  0  0  0  0  0  0
   11.9565    0.0816    0.0000 H   0  0  0  0  0  0  0  0  0  0  0  0
    8.5311    1.1399    0.0000 H   0  0  0  0  0  0  0  0  0  0  0  0
    6.4427    3.0138    0.0000 H   0  0  0  0  0  0  0  0  0  0  0  0
    2.8660    2.0216    0.0000 H   0  0  0  0  0  0  0  0  0  0  0  0
    2.8660    5.2616    0.0000 H   0  0  0  0  0  0  0  0  0  0  0  0
    8.0279    2.6797    0.0000 H   0  0  0  0  0  0  0  0  0  0  0  0
   12.9631   -2.9980    0.0000 H   0  0  0  0  0  0  0  0  0  0  0  0
   13.5417   -0.2524    0.0000 H   0  0  0  0  0  0  0  0  0  0  0  0
   14.0450   -1.7923    0.0000 H   0  0  0  0  0  0  0  0  0  0  0  0
    1.4631    2.8316    0.0000 H   0  0  0  0  0  0  0  0  0  0  0  0
    1.4631    4.4516    0.0000 H   0  0  0  0  0  0  0  0  0  0  0  0
   11.8488   -3.4359    0.0000 H   0  0  0  0  0  0  0  0  0  0  0  0
   10.3055   -4.2276    0.0000 H   0  0  0  0  0  0  0  0  0  0  0  0
   10.3529   -5.1031    0.0000 H   0  0  0  0  0  0  0  0  0  0  0  0
   11.2284   -5.0557    0.0000 H   0  0  0  0  0  0  0  0  0  0  0  0
   12.2854   -4.7102    0.0000 H   0  0  0  0  0  0  0  0  0  0  0  0
   13.0200   -4.2314    0.0000 H   0  0  0  0  0  0  0  0  0  0  0  0
   12.5411   -3.4969    0.0000 H   0  0  0  0  0  0  0  0  0  0  0  0
  1 17  1  0  0  0  0
  1 32  1  0  0  0  0
  2 21  2  0  0  0  0
  3  6  1  0  0  0  0
  3  7  1  0  0  0  0
  3 10  1  0  0  0  0
  4  8  1  0  0  0  0
  4  9  1  0  0  0  0
  4 11  1  0  0  0  0
  5 13  1  0  0  0  0
  5 15  1  0  0  0  0
  5 21  1  0  0  0  0
  6  8  1  0  0  0  0
  6 35  1  0  0  0  0
  6 36  1  0  0  0  0
  7  9  1  0  0  0  0
  7 37  1  0  0  0  0
  7 38  1  0  0  0  0
  8 39  1  0  0  0  0
  8 40  1  0  0  0  0
  9 41  1  0  0  0  0
  9 42  1  0  0  0  0
 10 12  1  0  0  0  0
 10 43  1  0  0  0  0
 10 44  1  0  0  0  0
 11 17  1  0  0  0  0
 11 20  2  0  0  0  0
 12 18  2  0  0  0  0
 12 22  1  0  0  0  0
 13 14  1  0  0  0  0
 13 45  1  0  0  0  0
 13 46  1  0  0  0  0
 14 16  1  0  0  0  0
 14 47  1  0  0  0  0
 14 48  1  0  0  0  0
 15 16  1  0  0  0  0
 15 24  2  0  0  0  0
 16 25  2  0  0  0  0
 17 27  2  0  0  0  0
 18 19  1  0  0  0  0
 18 49  1  0  0  0  0
 19 21  1  0  0  0  0
 19 23  2  0  0  0  0
 20 28  1  0  0  0  0
 20 50  1  0  0  0  0
 22 26  2  0  0  0  0
 22 51  1  0  0  0  0
 23 26  1  0  0  0  0
 23 52  1  0  0  0  0
 24 30  1  0  0  0  0
 24 53  1  0  0  0  0
 25 31  1  0  0  0  0
 25 54  1  0  0  0  0
 26 55  1  0  0  0  0
 27 29  1  0  0  0  0
 27 56  1  0  0  0  0
 28 29  2  0  0  0  0
 28 57  1  0  0  0  0
 29 58  1  0  0  0  0
 30 31  2  0  0  0  0
 30 59  1  0  0  0  0
 31 60  1  0  0  0  0
 32 33  1  0  0  0  0
 32 34  1  0  0  0  0
 32 61  1  0  0  0  0
 33 62  1  0  0  0  0
 33 63  1  0  0  0  0
 33 64  1  0  0  0  0
 34 65  1  0  0  0  0
 34 66  1  0  0  0  0
 34 67  1  0  0  0  0
M  END
> <PUBCHEM_COMPOUND_CID>
10718592

> <PUBCHEM_COMPOUND_CANONICALIZED>
1

> <PUBCHEM_CACTVS_COMPLEXITY>
662

> <PUBCHEM_CACTVS_HBOND_ACCEPTOR>
4

> <PUBCHEM_CACTVS_HBOND_DONOR>
0

> <PUBCHEM_CACTVS_ROTATABLE_BOND>
6

> <PUBCHEM_CACTVS_SUBSKEYS>
AAADcfB7MAAAAAAAAAAAAAAAAAAAAWAAAAA8YMEAAAAAAFgBUAAAHgAAAAAADBzhmAYyxoMABACIAiVSUACCCAAlIgAIiAEPbMgOZjLEtZuXOSjkxhHY6YeYycCOAAACAAACEAAAAAQAAAQgAAAAAAAAAA==

> <PUBCHEM_IUPAC_OPENEYE_NAME>
indolin-1-yl-[3-[[4-(2-isopropoxyphenyl)piperazin-1-yl]methyl]phenyl]methanone

> <PUBCHEM_IUPAC_CAS_NAME>
2,3-dihydroindol-1-yl-[3-[[4-(2-propan-2-yloxyphenyl)-1-piperazinyl]methyl]phenyl]methanone

> <PUBCHEM_IUPAC_NAME_MARKUP>
2,3-dihydroindol-1-yl-[3-[[4-(2-propan-2-yloxyphenyl)piperazin-1-yl]methyl]phenyl]methanone

> <PUBCHEM_IUPAC_NAME>
2,3-dihydroindol-1-yl-[3-[[4-(2-propan-2-yloxyphenyl)piperazin-1-yl]methyl]phenyl]methanone

> <PUBCHEM_IUPAC_SYSTEMATIC_NAME>
2,3-dihydroindol-1-yl-[3-[[4-(2-propan-2-yloxyphenyl)piperazin-1-yl]methyl]phenyl]methanone

> <PUBCHEM_IUPAC_TRADITIONAL_NAME>
indolin-1-yl-[3-[[4-(2-isopropoxyphenyl)piperazino]methyl]phenyl]methanone

> <PUBCHEM_IUPAC_INCHI>
InChI=1S/C29H33N3O2/c1-22(2)34-28-13-6-5-12-27(28)31-18-16-30(17-19-31)21-23-8-7-10-25(20-23)29(33)32-15-14-24-9-3-4-11-26(24)32/h3-13,20,22H,14-19,21H2,1-2H3

> <PUBCHEM_IUPAC_INCHIKEY>
CBLUNKVNKSMVMO-UHFFFAOYSA-N

> <PUBCHEM_XLOGP3_AA>
5.2

> <PUBCHEM_EXACT_MASS>
455.25727730

> <PUBCHEM_MOLECULAR_FORMULA>
C29H33N3O2

> <PUBCHEM_MOLECULAR_WEIGHT>
455.6

> <PUBCHEM_OPENEYE_CAN_SMILES>
CC(C)OC1=CC=CC=C1N2CCN(CC2)CC3=CC(=CC=C3)C(=O)N4CCC5=CC=CC=C54

> <PUBCHEM_OPENEYE_ISO_SMILES>
CC(C)OC1=CC=CC=C1N2CCN(CC2)CC3=CC(=CC=C3)C(=O)N4CCC5=CC=CC=C54

> <PUBCHEM_CACTVS_TPSA>
36

> <PUBCHEM_MONOISOTOPIC_WEIGHT>
455.25727730

> <PUBCHEM_TOTAL_CHARGE>
0

> <PUBCHEM_HEAVY_ATOM_COUNT>
34

> <PUBCHEM_ATOM_DEF_STEREO_COUNT>
0

> <PUBCHEM_ATOM_UDEF_STEREO_COUNT>
0

> <PUBCHEM_BOND_DEF_STEREO_COUNT>
0

> <PUBCHEM_BOND_UDEF_STEREO_COUNT>
0

> <PUBCHEM_ISOTOPIC_ATOM_COUNT>
0

> <PUBCHEM_COMPONENT_COUNT>
1

> <PUBCHEM_CACTVS_TAUTO_COUNT>
-1

> <PUBCHEM_COORDINATE_TYPE>
1
5
255

> <PUBCHEM_BONDANNOTATIONS>
11  17  8
11  20  8
12  18  8
12  22  8
15  16  8
15  24  8
16  25  8
17  27  8
18  19  8
19  23  8
20  28  8
22  26  8
23  26  8
24  30  8
25  31  8
27  29  8
28  29  8
30  31  8

$$$$
