46180328
  -OEChem-09292322482D

 52 55  0     1  0  0  0  0  0999 V2000
    5.5138    2.5016    0.0000 O   0  0  0  0  0  0  0  0  0  0  0  0
    8.9864   -0.5299    0.0000 N   0  0  3  0  0  0  0  0  0  0  0  0
    8.1282   -0.0330    0.0000 C   0  0  1  0  0  0  0  0  0  0  0  0
    8.1282    0.9670    0.0000 C   0  0  0  0  0  0  0  0  0  0  0  0
    7.2622   -0.5330    0.0000 C   0  0  0  0  0  0  0  0  0  0  0  0
    9.8519   -0.0458    0.0000 C   0  0  0  0  0  0  0  0  0  0  0  0
    9.0382    1.4739    0.0000 C   0  0  0  0  0  0  0  0  0  0  0  0
    9.8775    0.9456    0.0000 C   0  0  0  0  0  0  0  0  0  0  0  0
    7.2622    1.4670    0.0000 C   0  0  0  0  0  0  0  0  0  0  0  0
    6.3961   -0.0330    0.0000 C   0  0  0  0  0  0  0  0  0  0  0  0
    6.3961    0.9670    0.0000 C   0  0  0  0  0  0  0  0  0  0  0  0
    8.9790   -1.5299    0.0000 C   0  0  0  0  0  0  0  0  0  0  0  0
    9.0462    2.5154    0.0000 C   0  0  0  0  0  0  0  0  0  0  0  0
    7.2461    2.5085    0.0000 C   0  0  0  0  0  0  0  0  0  0  0  0
    9.8413   -2.0363    0.0000 C   0  0  0  0  0  0  0  0  0  0  0  0
    5.5022    1.5017    0.0000 C   0  0  0  0  0  0  0  0  0  0  0  0
    5.5022   -0.5677    0.0000 C   0  0  0  0  0  0  0  0  0  0  0  0
    8.1441    3.0363    0.0000 C   0  0  0  0  0  0  0  0  0  0  0  0
    4.5961    0.9878    0.0000 C   0  0  0  0  0  0  0  0  0  0  0  0
    4.5961   -0.0538    0.0000 C   0  0  0  0  0  0  0  0  0  0  0  0
    9.8339   -3.0363    0.0000 C   0  0  0  0  0  0  0  0  0  0  0  0
    3.7320    1.4912    0.0000 C   0  0  0  0  0  0  0  0  0  0  0  0
    2.8641    0.9945    0.0000 C   0  0  0  0  0  0  0  0  0  0  0  0
    2.0000    1.4978    0.0000 C   0  0  0  0  0  0  0  0  0  0  0  0
    2.8602   -0.0055    0.0000 C   0  0  0  0  0  0  0  0  0  0  0  0
    8.1277   -0.8830    0.0000 H   0  0  0  0  0  0  0  0  0  0  0  0
    6.8636   -1.0079    0.0000 H   0  0  0  0  0  0  0  0  0  0  0  0
    7.6607   -1.0079    0.0000 H   0  0  0  0  0  0  0  0  0  0  0  0
   10.0536   -0.6320    0.0000 H   0  0  0  0  0  0  0  0  0  0  0  0
   10.4647    0.0486    0.0000 H   0  0  0  0  0  0  0  0  0  0  0  0
   10.4846    0.8197    0.0000 H   0  0  0  0  0  0  0  0  0  0  0  0
   10.1093    1.5207    0.0000 H   0  0  0  0  0  0  0  0  0  0  0  0
    8.3692   -1.4177    0.0000 H   0  0  0  0  0  0  0  0  0  0  0  0
    8.7626   -2.1109    0.0000 H   0  0  0  0  0  0  0  0  0  0  0  0
    9.5844    2.8234    0.0000 H   0  0  0  0  0  0  0  0  0  0  0  0
    6.7056    2.8123    0.0000 H   0  0  0  0  0  0  0  0  0  0  0  0
   10.4511   -2.1485    0.0000 H   0  0  0  0  0  0  0  0  0  0  0  0
   10.0577   -1.4553    0.0000 H   0  0  0  0  0  0  0  0  0  0  0  0
    5.5094   -1.1876    0.0000 H   0  0  0  0  0  0  0  0  0  0  0  0
    8.1418    3.6563    0.0000 H   0  0  0  0  0  0  0  0  0  0  0  0
    4.0604   -0.3659    0.0000 H   0  0  0  0  0  0  0  0  0  0  0  0
    9.2139   -3.0317    0.0000 H   0  0  0  0  0  0  0  0  0  0  0  0
    9.8293   -3.6562    0.0000 H   0  0  0  0  0  0  0  0  0  0  0  0
   10.4539   -3.0408    0.0000 H   0  0  0  0  0  0  0  0  0  0  0  0
    4.1324    1.9646    0.0000 H   0  0  0  0  0  0  0  0  0  0  0  0
    3.3353    1.9676    0.0000 H   0  0  0  0  0  0  0  0  0  0  0  0
    4.9804    2.8178    0.0000 H   0  0  0  0  0  0  0  0  0  0  0  0
    2.3121    2.0336    0.0000 H   0  0  0  0  0  0  0  0  0  0  0  0
    1.4643    1.8099    0.0000 H   0  0  0  0  0  0  0  0  0  0  0  0
    1.6879    0.9621    0.0000 H   0  0  0  0  0  0  0  0  0  0  0  0
    2.3221   -0.3134    0.0000 H   0  0  0  0  0  0  0  0  0  0  0  0
    3.3960   -0.3176    0.0000 H   0  0  0  0  0  0  0  0  0  0  0  0
  1 16  1  0  0  0  0
  1 47  1  0  0  0  0
  2  3  1  0  0  0  0
  2  6  1  0  0  0  0
  2 12  1  0  0  0  0
  3  4  1  0  0  0  0
  3  5  1  0  0  0  0
  3 26  1  1  0  0  0
  4  7  2  0  0  0  0
  4  9  1  0  0  0  0
  5 10  1  0  0  0  0
  5 27  1  0  0  0  0
  5 28  1  0  0  0  0
  6  8  1  0  0  0  0
  6 29  1  0  0  0  0
  6 30  1  0  0  0  0
  7  8  1  0  0  0  0
  7 13  1  0  0  0  0
  8 31  1  0  0  0  0
  8 32  1  0  0  0  0
  9 11  1  0  0  0  0
  9 14  2  0  0  0  0
 10 11  2  0  0  0  0
 10 17  1  0  0  0  0
 11 16  1  0  0  0  0
 12 15  1  0  0  0  0
 12 33  1  0  0  0  0
 12 34  1  0  0  0  0
 13 18  2  0  0  0  0
 13 35  1  0  0  0  0
 14 18  1  0  0  0  0
 14 36  1  0  0  0  0
 15 21  1  0  0  0  0
 15 37  1  0  0  0  0
 15 38  1  0  0  0  0
 16 19  2  0  0  0  0
 17 20  2  0  0  0  0
 17 39  1  0  0  0  0
 18 40  1  0  0  0  0
 19 20  1  0  0  0  0
 19 22  1  0  0  0  0
 20 41  1  0  0  0  0
 21 42  1  0  0  0  0
 21 43  1  0  0  0  0
 21 44  1  0  0  0  0
 22 23  1  0  0  0  0
 22 45  1  0  0  0  0
 22 46  1  0  0  0  0
 23 24  1  0  0  0  0
 23 25  2  0  0  0  0
 24 48  1  0  0  0  0
 24 49  1  0  0  0  0
 24 50  1  0  0  0  0
 25 51  1  0  0  0  0
 25 52  1  0  0  0  0
M  END
> <PUBCHEM_COMPOUND_CID>
46180328

> <PUBCHEM_COMPOUND_CANONICALIZED>
1

> <PUBCHEM_CACTVS_COMPLEXITY>
489

> <PUBCHEM_CACTVS_HBOND_ACCEPTOR>
2

> <PUBCHEM_CACTVS_HBOND_DONOR>
1

> <PUBCHEM_CACTVS_ROTATABLE_BOND>
4

> <PUBCHEM_CACTVS_SUBSKEYS>
AAADceB6IAAAAAAAAAAAAAAAAAAAAAAAAAA8YMEAAAAAAADxQAAAHgAACAAADCzBmAQyBoMAAgCAAiBCAACCAAAgIAAIiAAMDIgIJiKCkROEcAhkwBGImAeQ0PMOwAADAAAYAACQAAaAADQAAAAAAAAAAA==

> <PUBCHEM_IUPAC_OPENEYE_NAME>
(6aR)-10-(2-methylallyl)-6-propyl-5,6,6a,7-tetrahydro-4H-dibenzo[de,g]quinolin-11-ol

> <PUBCHEM_IUPAC_CAS_NAME>
(6aR)-10-(2-methylprop-2-enyl)-6-propyl-5,6,6a,7-tetrahydro-4H-dibenzo[de,g]quinolin-11-ol

> <PUBCHEM_IUPAC_NAME_MARKUP>
(6<I>a</I><I>R</I>)-10-(2-methylprop-2-enyl)-6-propyl-5,6,6<I>a</I>,7-tetrahydro-4<I>H</I>-dibenzo[de,g]quinolin-11-ol

> <PUBCHEM_IUPAC_NAME>
(6aR)-10-(2-methylprop-2-enyl)-6-propyl-5,6,6a,7-tetrahydro-4H-dibenzo[de,g]quinolin-11-ol

> <PUBCHEM_IUPAC_SYSTEMATIC_NAME>
(6aR)-10-(2-methylprop-2-enyl)-6-propyl-5,6,6a,7-tetrahydro-4H-dibenzo[de,g]quinolin-11-ol

> <PUBCHEM_IUPAC_TRADITIONAL_NAME>
(6aR)-10-(2-methylallyl)-6-propyl-5,6,6a,7-tetrahydro-4H-dibenzo[de,g]quinolin-11-ol

> <PUBCHEM_IUPAC_INCHI>
InChI=1S/C23H27NO/c1-4-11-24-12-10-16-6-5-7-19-21(16)20(24)14-17-8-9-18(13-15(2)3)23(25)22(17)19/h5-9,20,25H,2,4,10-14H2,1,3H3/t20-/m1/s1

> <PUBCHEM_IUPAC_INCHIKEY>
UTKIHSDWABXFSV-HXUWFJFHSA-N

> <PUBCHEM_XLOGP3_AA>
5.7

> <PUBCHEM_EXACT_MASS>
333.209264485

> <PUBCHEM_MOLECULAR_FORMULA>
C23H27NO

> <PUBCHEM_MOLECULAR_WEIGHT>
333.5

> <PUBCHEM_OPENEYE_CAN_SMILES>
CCCN1CCC2=C3C1CC4=C(C3=CC=C2)C(=C(C=C4)CC(=C)C)O

> <PUBCHEM_OPENEYE_ISO_SMILES>
CCCN1CCC2=C3[C@H]1CC4=C(C3=CC=C2)C(=C(C=C4)CC(=C)C)O

> <PUBCHEM_CACTVS_TPSA>
23.5

> <PUBCHEM_MONOISOTOPIC_WEIGHT>
333.209264485

> <PUBCHEM_TOTAL_CHARGE>
0

> <PUBCHEM_HEAVY_ATOM_COUNT>
25

> <PUBCHEM_ATOM_DEF_STEREO_COUNT>
1

> <PUBCHEM_ATOM_UDEF_STEREO_COUNT>
0

> <PUBCHEM_BOND_DEF_STEREO_COUNT>
0

> <PUBCHEM_BOND_UDEF_STEREO_COUNT>
0

> <PUBCHEM_ISOTOPIC_ATOM_COUNT>
0

> <PUBCHEM_COMPONENT_COUNT>
1

> <PUBCHEM_CACTVS_TAUTO_COUNT>
-1

> <PUBCHEM_COORDINATE_TYPE>
1
5
255

> <PUBCHEM_BONDANNOTATIONS>
10  11  8
10  17  8
11  16  8
13  18  8
14  18  8
16  19  8
17  20  8
19  20  8
3  26  5
4  7  8
4  9  8
7  13  8
9  14  8

$$$$
