45272634
  -OEChem-09292322282D

 59 62  0     1  0  0  0  0  0999 V2000
    3.8953   -6.1462    0.0000 Cl  0  0  0  0  0  0  0  0  0  0  0  0
    5.9804   -1.8337    0.0000 O   0  0  0  0  0  0  0  0  0  0  0  0
    4.1630    1.5301    0.0000 N   0  0  3  0  0  0  0  0  0  0  0  0
    4.3525   -1.1089    0.0000 N   0  0  0  0  0  0  0  0  0  0  0  0
    4.4372   -2.7247    0.0000 N   0  0  0  0  0  0  0  0  0  0  0  0
    3.7147    3.2031    0.0000 C   0  0  0  0  0  0  0  0  0  0  0  0
    3.2369    5.1516    0.0000 C   0  0  0  0  0  0  0  0  0  0  0  0
    3.9735    4.1690    0.0000 C   0  0  0  0  0  0  0  0  0  0  0  0
    2.3420    2.6111    0.0000 C   0  0  0  0  0  0  0  0  0  0  0  0
    5.1137    2.6943    0.0000 C   0  0  0  0  0  0  0  0  0  0  0  0
    2.0000    3.5508    0.0000 C   0  0  0  0  0  0  0  0  0  0  0  0
    5.3725    3.6602    0.0000 C   0  0  0  0  0  0  0  0  0  0  0  0
    3.4559    2.2372    0.0000 C   0  0  0  0  0  0  0  0  0  0  0  0
    3.3415    6.1462    0.0000 C   0  0  0  0  0  0  0  0  0  0  0  0
    2.3234    5.5584    0.0000 C   0  0  0  0  0  0  0  0  0  0  0  0
    3.9042    0.5641    0.0000 C   0  0  0  0  0  0  0  0  0  0  0  0
    5.1289    1.7889    0.0000 C   0  0  0  0  0  0  0  0  0  0  0  0
    4.6113   -0.1430    0.0000 C   0  0  0  0  0  0  0  0  0  0  0  0
    3.4189   -1.4673    0.0000 C   0  0  0  0  0  0  0  0  0  0  0  0
    4.9818   -1.8860    0.0000 C   0  0  0  0  0  0  0  0  0  0  0  0
    3.4712   -2.4659    0.0000 C   0  0  0  0  0  0  0  0  0  0  0  0
    4.7955   -3.6583    0.0000 C   0  0  0  0  0  0  0  0  0  0  0  0
    4.1662   -4.4354    0.0000 C   0  0  0  0  0  0  0  0  0  0  0  0
    5.7832   -3.8147    0.0000 C   0  0  0  0  0  0  0  0  0  0  0  0
    4.5246   -5.3690    0.0000 C   0  0  0  0  0  0  0  0  0  0  0  0
    6.1416   -4.7483    0.0000 C   0  0  0  0  0  0  0  0  0  0  0  0
    5.5123   -5.5254    0.0000 C   0  0  0  0  0  0  0  0  0  0  0  0
    3.9595    3.5492    0.0000 H   0  0  0  0  0  0  0  0  0  0  0  0
    1.7636    2.3878    0.0000 H   0  0  0  0  0  0  0  0  0  0  0  0
    2.5765    2.0371    0.0000 H   0  0  0  0  0  0  0  0  0  0  0  0
    4.9187    2.1057    0.0000 H   0  0  0  0  0  0  0  0  0  0  0  0
    5.7076    2.5165    0.0000 H   0  0  0  0  0  0  0  0  0  0  0  0
    1.8057    4.1395    0.0000 H   0  0  0  0  0  0  0  0  0  0  0  0
    1.4142    3.3476    0.0000 H   0  0  0  0  0  0  0  0  0  0  0  0
    5.9664    3.4824    0.0000 H   0  0  0  0  0  0  0  0  0  0  0  0
    5.5674    4.2488    0.0000 H   0  0  0  0  0  0  0  0  0  0  0  0
    2.8940    2.4992    0.0000 H   0  0  0  0  0  0  0  0  0  0  0  0
    3.1003    1.7293    0.0000 H   0  0  0  0  0  0  0  0  0  0  0  0
    3.9581    6.0813    0.0000 H   0  0  0  0  0  0  0  0  0  0  0  0
    3.4063    6.7628    0.0000 H   0  0  0  0  0  0  0  0  0  0  0  0
    2.7248    6.2110    0.0000 H   0  0  0  0  0  0  0  0  0  0  0  0
    2.5756    6.1248    0.0000 H   0  0  0  0  0  0  0  0  0  0  0  0
    1.7570    5.8106    0.0000 H   0  0  0  0  0  0  0  0  0  0  0  0
    2.0712    4.9920    0.0000 H   0  0  0  0  0  0  0  0  0  0  0  0
    3.3423    0.8262    0.0000 H   0  0  0  0  0  0  0  0  0  0  0  0
    3.5486    0.0563    0.0000 H   0  0  0  0  0  0  0  0  0  0  0  0
    5.2894    1.1900    0.0000 H   0  0  0  0  0  0  0  0  0  0  0  0
    5.7278    1.9494    0.0000 H   0  0  0  0  0  0  0  0  0  0  0  0
    4.9685    2.3878    0.0000 H   0  0  0  0  0  0  0  0  0  0  0  0
    5.1732   -0.4050    0.0000 H   0  0  0  0  0  0  0  0  0  0  0  0
    4.9669    0.3649    0.0000 H   0  0  0  0  0  0  0  0  0  0  0  0
    3.2584   -0.8684    0.0000 H   0  0  0  0  0  0  0  0  0  0  0  0
    2.8065   -1.5642    0.0000 H   0  0  0  0  0  0  0  0  0  0  0  0
    2.8521   -2.4334    0.0000 H   0  0  0  0  0  0  0  0  0  0  0  0
    3.3742   -3.0783    0.0000 H   0  0  0  0  0  0  0  0  0  0  0  0
    3.5538   -4.3384    0.0000 H   0  0  0  0  0  0  0  0  0  0  0  0
    6.1734   -3.3329    0.0000 H   0  0  0  0  0  0  0  0  0  0  0  0
    6.7540   -4.8453    0.0000 H   0  0  0  0  0  0  0  0  0  0  0  0
    5.7345   -6.1043    0.0000 H   0  0  0  0  0  0  0  0  0  0  0  0
  1 25  1  0  0  0  0
  2 20  2  0  0  0  0
  3 13  1  0  0  0  0
  3 16  1  0  0  0  0
  3 17  1  0  0  0  0
  4 18  1  0  0  0  0
  4 19  1  0  0  0  0
  4 20  1  0  0  0  0
  5 20  1  0  0  0  0
  5 21  1  0  0  0  0
  5 22  1  0  0  0  0
  6  7  1  0  0  0  0
  6  9  1  0  0  0  0
  6 10  1  0  0  0  0
  6 13  1  0  0  0  0
  7  8  1  0  0  0  0
  7 14  1  0  0  0  0
  7 15  1  0  0  0  0
  8 11  1  0  0  0  0
  8 12  1  0  0  0  0
  8 28  1  0  0  0  0
  9 11  1  0  0  0  0
  9 29  1  0  0  0  0
  9 30  1  0  0  0  0
 10 12  1  0  0  0  0
 10 31  1  0  0  0  0
 10 32  1  0  0  0  0
 11 33  1  0  0  0  0
 11 34  1  0  0  0  0
 12 35  1  0  0  0  0
 12 36  1  0  0  0  0
 13 37  1  0  0  0  0
 13 38  1  0  0  0  0
 14 39  1  0  0  0  0
 14 40  1  0  0  0  0
 14 41  1  0  0  0  0
 15 42  1  0  0  0  0
 15 43  1  0  0  0  0
 15 44  1  0  0  0  0
 16 18  1  0  0  0  0
 16 45  1  0  0  0  0
 16 46  1  0  0  0  0
 17 47  1  0  0  0  0
 17 48  1  0  0  0  0
 17 49  1  0  0  0  0
 18 50  1  0  0  0  0
 18 51  1  0  0  0  0
 19 21  1  0  0  0  0
 19 52  1  0  0  0  0
 19 53  1  0  0  0  0
 21 54  1  0  0  0  0
 21 55  1  0  0  0  0
 22 23  2  0  0  0  0
 22 24  1  0  0  0  0
 23 25  1  0  0  0  0
 23 56  1  0  0  0  0
 24 26  2  0  0  0  0
 24 57  1  0  0  0  0
 25 27  2  0  0  0  0
 26 27  1  0  0  0  0
 26 58  1  0  0  0  0
 27 59  1  0  0  0  0
M  END
> <PUBCHEM_COMPOUND_CID>
45272634

> <PUBCHEM_COMPOUND_CANONICALIZED>
1

> <PUBCHEM_CACTVS_COMPLEXITY>
558

> <PUBCHEM_CACTVS_HBOND_ACCEPTOR>
2

> <PUBCHEM_CACTVS_HBOND_DONOR>
0

> <PUBCHEM_CACTVS_ROTATABLE_BOND>
6

> <PUBCHEM_CACTVS_SUBSKEYS>
AAADcfB7IAAEAAAAAAAAAAAAAAAAAeMEAAAwYAAAAAAAAAABAAAAHgIAAAAADwrBECQzwIMAAACIACRCUACCAAAhBwAIiAAIZoiIYCLBk5GUIAhohgLIyCcQgMAPgAAAAAIAAACAAAAABAAAAQAACAAAAA==

> <PUBCHEM_IUPAC_OPENEYE_NAME>
1-(3-chlorophenyl)-3-[2-[(7,7-dimethylnorbornan-1-yl)methyl-methyl-amino]ethyl]imidazolidin-2-one

> <PUBCHEM_IUPAC_CAS_NAME>
1-(3-chlorophenyl)-3-[2-[(7,7-dimethyl-1-bicyclo[2.2.1]heptanyl)methyl-methylamino]ethyl]-2-imidazolidinone

> <PUBCHEM_IUPAC_NAME_MARKUP>
1-(3-chlorophenyl)-3-[2-[(7,7-dimethyl-1-bicyclo[2.2.1]heptanyl)methyl-methylamino]ethyl]imidazolidin-2-one

> <PUBCHEM_IUPAC_NAME>
1-(3-chlorophenyl)-3-[2-[(7,7-dimethyl-1-bicyclo[2.2.1]heptanyl)methyl-methylamino]ethyl]imidazolidin-2-one

> <PUBCHEM_IUPAC_SYSTEMATIC_NAME>
1-(3-chlorophenyl)-3-[2-[(7,7-dimethyl-1-bicyclo[2.2.1]heptanyl)methyl-methyl-amino]ethyl]imidazolidin-2-one

> <PUBCHEM_IUPAC_TRADITIONAL_NAME>
1-(3-chlorophenyl)-3-[2-[(7,7-dimethylnorbornan-1-yl)methyl-methyl-amino]ethyl]-2-imidazolidinone

> <PUBCHEM_IUPAC_INCHI>
InChI=1S/C22H32ClN3O/c1-21(2)17-7-9-22(21,10-8-17)16-24(3)11-12-25-13-14-26(20(25)27)19-6-4-5-18(23)15-19/h4-6,15,17H,7-14,16H2,1-3H3

> <PUBCHEM_IUPAC_INCHIKEY>
GFQWAFBXHVCNHP-UHFFFAOYSA-N

> <PUBCHEM_XLOGP3_AA>
4.6

> <PUBCHEM_EXACT_MASS>
389.2233903

> <PUBCHEM_MOLECULAR_FORMULA>
C22H32ClN3O

> <PUBCHEM_MOLECULAR_WEIGHT>
390.0

> <PUBCHEM_OPENEYE_CAN_SMILES>
CC1(C2CCC1(CC2)CN(C)CCN3CCN(C3=O)C4=CC(=CC=C4)Cl)C

> <PUBCHEM_OPENEYE_ISO_SMILES>
CC1(C2CCC1(CC2)CN(C)CCN3CCN(C3=O)C4=CC(=CC=C4)Cl)C

> <PUBCHEM_CACTVS_TPSA>
26.8

> <PUBCHEM_MONOISOTOPIC_WEIGHT>
389.2233903

> <PUBCHEM_TOTAL_CHARGE>
0

> <PUBCHEM_HEAVY_ATOM_COUNT>
27

> <PUBCHEM_ATOM_DEF_STEREO_COUNT>
0

> <PUBCHEM_ATOM_UDEF_STEREO_COUNT>
0

> <PUBCHEM_BOND_DEF_STEREO_COUNT>
0

> <PUBCHEM_BOND_UDEF_STEREO_COUNT>
0

> <PUBCHEM_ISOTOPIC_ATOM_COUNT>
0

> <PUBCHEM_COMPONENT_COUNT>
1

> <PUBCHEM_CACTVS_TAUTO_COUNT>
-1

> <PUBCHEM_COORDINATE_TYPE>
1
5
255

> <PUBCHEM_BONDANNOTATIONS>
22  23  8
22  24  8
23  25  8
24  26  8
25  27  8
26  27  8

$$$$
