118706302
  -OEChem-09292322472D

 38 39  0     1  0  0  0  0  0999 V2000
    4.2826    0.0000    0.0000 Cl  0  0  0  0  0  0  0  0  0  0  0  0
    3.7211    6.2652    0.0000 O   0  0  0  0  0  0  0  0  0  0  0  0
    6.9434    5.4959    0.0000 O   0  0  0  0  0  0  0  0  0  0  0  0
    7.3100    3.8031    0.0000 N   0  0  0  0  0  0  0  0  0  0  0  0
    8.9593    3.2742    0.0000 N   0  0  0  0  0  0  0  0  0  0  0  0
    8.5927    4.9671    0.0000 N   0  0  0  0  0  0  0  0  0  0  0  0
    3.1333    5.4562    0.0000 C   0  0  3  0  0  0  0  0  0  0  0  0
    3.9423    4.8684    0.0000 C   0  0  0  0  0  0  0  0  0  0  0  0
    2.3243    4.8684    0.0000 C   0  0  0  0  0  0  0  0  0  0  0  0
    3.6333    3.9174    0.0000 C   0  0  0  0  0  0  0  0  0  0  0  0
    2.6333    3.9174    0.0000 C   0  0  0  0  0  0  0  0  0  0  0  0
    2.5455    6.2652    0.0000 C   0  0  0  0  0  0  0  0  0  0  0  0
    4.9577    5.1007    0.0000 C   0  0  0  0  0  0  0  0  0  0  0  0
    1.3089    5.1007    0.0000 C   0  0  0  0  0  0  0  0  0  0  0  0
    4.3183    3.1326    0.0000 C   0  0  0  0  0  0  0  0  0  0  0  0
    1.9483    3.1326    0.0000 C   0  0  0  0  0  0  0  0  0  0  0  0
    5.6607    4.3320    0.0000 C   0  0  0  0  0  0  0  0  0  0  0  0
    5.3388    3.3414    0.0000 C   0  0  0  0  0  0  0  0  0  0  0  0
    0.6060    4.3320    0.0000 C   0  0  0  0  0  0  0  0  0  0  0  0
    0.9278    3.3414    0.0000 C   0  0  0  0  0  0  0  0  0  0  0  0
    6.6380    4.5437    0.0000 C   0  0  0  0  0  0  0  0  0  0  0  0
    8.2873    4.0148    0.0000 C   0  0  0  0  0  0  0  0  0  0  0  0
    3.0471    6.6297    0.0000 H   0  0  0  0  0  0  0  0  0  0  0  0
    2.1811    6.7668    0.0000 H   0  0  0  0  0  0  0  0  0  0  0  0
    2.0439    5.9008    0.0000 H   0  0  0  0  0  0  0  0  0  0  0  0
    5.1425    5.6925    0.0000 H   0  0  0  0  0  0  0  0  0  0  0  0
    1.1241    5.6925    0.0000 H   0  0  0  0  0  0  0  0  0  0  0  0
    4.1199    2.5452    0.0000 H   0  0  0  0  0  0  0  0  0  0  0  0
    2.1467    2.5452    0.0000 H   0  0  0  0  0  0  0  0  0  0  0  0
    3.4689    6.8316    0.0000 H   0  0  0  0  0  0  0  0  0  0  0  0
    5.7519    2.8790    0.0000 H   0  0  0  0  0  0  0  0  0  0  0  0
    0.0000    4.4633    0.0000 H   0  0  0  0  0  0  0  0  0  0  0  0
    0.5148    2.8790    0.0000 H   0  0  0  0  0  0  0  0  0  0  0  0
    9.5653    3.4055    0.0000 H   0  0  0  0  0  0  0  0  0  0  0  0
    8.7700    2.6839    0.0000 H   0  0  0  0  0  0  0  0  0  0  0  0
    9.1986    5.0983    0.0000 H   0  0  0  0  0  0  0  0  0  0  0  0
    8.1760    5.4262    0.0000 H   0  0  0  0  0  0  0  0  0  0  0  0
    5.2826    0.0000    0.0000 H   0  0  0  0  0  0  0  0  0  0  0  0
  1 38  1  0  0  0  0
  2  7  1  0  0  0  0
  2 30  1  0  0  0  0
  3 21  2  0  0  0  0
  4 21  1  0  0  0  0
  4 22  2  0  0  0  0
  5 22  1  0  0  0  0
  5 34  1  0  0  0  0
  5 35  1  0  0  0  0
  6 22  1  0  0  0  0
  6 36  1  0  0  0  0
  6 37  1  0  0  0  0
  7  8  1  0  0  0  0
  7  9  1  0  0  0  0
  7 12  1  0  0  0  0
  8 10  2  0  0  0  0
  8 13  1  0  0  0  0
  9 11  1  0  0  0  0
  9 14  2  0  0  0  0
 10 11  1  0  0  0  0
 10 15  1  0  0  0  0
 11 16  2  0  0  0  0
 12 23  1  0  0  0  0
 12 24  1  0  0  0  0
 12 25  1  0  0  0  0
 13 17  2  0  0  0  0
 13 26  1  0  0  0  0
 14 19  1  0  0  0  0
 14 27  1  0  0  0  0
 15 18  2  0  0  0  0
 15 28  1  0  0  0  0
 16 20  1  0  0  0  0
 16 29  1  0  0  0  0
 17 18  1  0  0  0  0
 17 21  1  0  0  0  0
 18 31  1  0  0  0  0
 19 20  2  0  0  0  0
 19 32  1  0  0  0  0
 20 33  1  0  0  0  0
M  END
> <PUBCHEM_COMPOUND_CID>
118706302

> <PUBCHEM_COMPOUND_CANONICALIZED>
1

> <PUBCHEM_CACTVS_COMPLEXITY>
460

> <PUBCHEM_CACTVS_HBOND_ACCEPTOR>
2

> <PUBCHEM_CACTVS_HBOND_DONOR>
4

> <PUBCHEM_CACTVS_ROTATABLE_BOND>
1

> <PUBCHEM_CACTVS_SUBSKEYS>
AAADceB7MAAEAAAAAAAAAAAAAAAAAYAAAAAwYAAAAAAAAGABQAAAHgAQCAAADESBmAAzAIJAAgCoAiFSNACCAAEkAAAIiAEADMgIJjKAlRGAcQBkwAEImYeY3ODOwAACAAAQAACAAAQAACAAAYAADAAAAA==

> <PUBCHEM_IUPAC_OPENEYE_NAME>
N-(diaminomethylene)-9-hydroxy-9-methyl-fluorene-2-carboxamide;hydrochloride

> <PUBCHEM_IUPAC_CAS_NAME>
N-(diaminomethylidene)-9-hydroxy-9-methyl-2-fluorenecarboxamide;hydrochloride

> <PUBCHEM_IUPAC_NAME_MARKUP>
<I>N</I>-(diaminomethylidene)-9-hydroxy-9-methylfluorene-2-carboxamide;hydrochloride

> <PUBCHEM_IUPAC_NAME>
N-(diaminomethylidene)-9-hydroxy-9-methylfluorene-2-carboxamide;hydrochloride

> <PUBCHEM_IUPAC_SYSTEMATIC_NAME>
N-[bis(azanyl)methylidene]-9-methyl-9-oxidanyl-fluorene-2-carboxamide;hydrochloride

> <PUBCHEM_IUPAC_TRADITIONAL_NAME>
N-(diaminomethylene)-9-hydroxy-9-methyl-fluorene-2-carboxamide;hydrochloride

> <PUBCHEM_IUPAC_INCHI>
InChI=1S/C16H15N3O2.ClH/c1-16(21)12-5-3-2-4-10(12)11-7-6-9(8-13(11)16)14(20)19-15(17)18;/h2-8,21H,1H3,(H4,17,18,19,20);1H

> <PUBCHEM_IUPAC_INCHIKEY>
YOHOVGGGJNLYRZ-UHFFFAOYSA-N

> <PUBCHEM_EXACT_MASS>
317.0931045

> <PUBCHEM_MOLECULAR_FORMULA>
C16H16ClN3O2

> <PUBCHEM_MOLECULAR_WEIGHT>
317.77

> <PUBCHEM_OPENEYE_CAN_SMILES>
CC1(C2=CC=CC=C2C3=C1C=C(C=C3)C(=O)N=C(N)N)O.Cl

> <PUBCHEM_OPENEYE_ISO_SMILES>
CC1(C2=CC=CC=C2C3=C1C=C(C=C3)C(=O)N=C(N)N)O.Cl

> <PUBCHEM_CACTVS_TPSA>
102

> <PUBCHEM_MONOISOTOPIC_WEIGHT>
317.0931045

> <PUBCHEM_TOTAL_CHARGE>
0

> <PUBCHEM_HEAVY_ATOM_COUNT>
22

> <PUBCHEM_ATOM_DEF_STEREO_COUNT>
0

> <PUBCHEM_ATOM_UDEF_STEREO_COUNT>
1

> <PUBCHEM_BOND_DEF_STEREO_COUNT>
0

> <PUBCHEM_BOND_UDEF_STEREO_COUNT>
0

> <PUBCHEM_ISOTOPIC_ATOM_COUNT>
0

> <PUBCHEM_COMPONENT_COUNT>
2

> <PUBCHEM_CACTVS_TAUTO_COUNT>
-1

> <PUBCHEM_COORDINATE_TYPE>
1
5
255

> <PUBCHEM_BONDANNOTATIONS>
10  15  8
11  16  8
13  17  8
14  19  8
15  18  8
16  20  8
17  18  8
19  20  8
7  2  3
8  10  8
8  13  8
9  11  8
9  14  8

$$$$
