134155116
  -OEChem-09292322382D

 43 46  0     1  0  0  0  0  0999 V2000
   11.2050   -2.4823    0.0000 F   0  0  0  0  0  0  0  0  0  0  0  0
    9.2441    1.8313    0.0000 O   0  0  0  0  0  0  0  0  0  0  0  0
    5.5321    0.9477    0.0000 N   0  0  3  0  0  0  0  0  0  0  0  0
    8.1301    0.4477    0.0000 C   0  0  3  0  0  0  0  0  0  0  0  0
    7.2641    0.9477    0.0000 C   0  0  0  0  0  0  0  0  0  0  0  0
    6.3981    0.4477    0.0000 C   0  0  0  0  0  0  0  0  0  0  0  0
    8.2332   -0.5411    0.0000 C   0  0  0  0  0  0  0  0  0  0  0  0
    5.5321    1.9477    0.0000 C   0  0  0  0  0  0  0  0  0  0  0  0
    4.6660    0.4477    0.0000 C   0  0  0  0  0  0  0  0  0  0  0  0
    9.0379    0.8528    0.0000 C   0  0  0  0  0  0  0  0  0  0  0  0
    9.2050   -0.7503    0.0000 C   0  0  0  0  0  0  0  0  0  0  0  0
    4.6660    2.4477    0.0000 C   0  0  0  0  0  0  0  0  0  0  0  0
    9.7050    0.1158    0.0000 C   0  0  0  0  0  0  0  0  0  0  0  0
    3.8000    0.9477    0.0000 C   0  0  0  0  0  0  0  0  0  0  0  0
    3.8000    1.9477    0.0000 C   0  0  0  0  0  0  0  0  0  0  0  0
    9.7050   -1.6163    0.0000 C   0  0  0  0  0  0  0  0  0  0  0  0
   10.7050    0.1158    0.0000 C   0  0  0  0  0  0  0  0  0  0  0  0
    2.9061    0.4130    0.0000 C   0  0  0  0  0  0  0  0  0  0  0  0
    2.9061    2.4823    0.0000 C   0  0  0  0  0  0  0  0  0  0  0  0
   10.7050   -1.6163    0.0000 C   0  0  0  0  0  0  0  0  0  0  0  0
   11.2050   -0.7503    0.0000 C   0  0  0  0  0  0  0  0  0  0  0  0
    2.0000    0.9268    0.0000 C   0  0  0  0  0  0  0  0  0  0  0  0
    2.0000    1.9685    0.0000 C   0  0  0  0  0  0  0  0  0  0  0  0
    7.6100    0.1102    0.0000 H   0  0  0  0  0  0  0  0  0  0  0  0
    7.6626    1.4226    0.0000 H   0  0  0  0  0  0  0  0  0  0  0  0
    6.8656    1.4226    0.0000 H   0  0  0  0  0  0  0  0  0  0  0  0
    5.9996   -0.0273    0.0000 H   0  0  0  0  0  0  0  0  0  0  0  0
    6.7966   -0.0273    0.0000 H   0  0  0  0  0  0  0  0  0  0  0  0
    7.6132   -0.5402    0.0000 H   0  0  0  0  0  0  0  0  0  0  0  0
    8.1671   -1.1575    0.0000 H   0  0  0  0  0  0  0  0  0  0  0  0
    6.1426    1.8400    0.0000 H   0  0  0  0  0  0  0  0  0  0  0  0
    5.7441    2.5303    0.0000 H   0  0  0  0  0  0  0  0  0  0  0  0
    4.2675   -0.0273    0.0000 H   0  0  0  0  0  0  0  0  0  0  0  0
    5.0646   -0.0273    0.0000 H   0  0  0  0  0  0  0  0  0  0  0  0
    5.0646    2.9226    0.0000 H   0  0  0  0  0  0  0  0  0  0  0  0
    4.2675    2.9226    0.0000 H   0  0  0  0  0  0  0  0  0  0  0  0
    9.3950   -2.1532    0.0000 H   0  0  0  0  0  0  0  0  0  0  0  0
   11.0150    0.6527    0.0000 H   0  0  0  0  0  0  0  0  0  0  0  0
    2.9132   -0.2070    0.0000 H   0  0  0  0  0  0  0  0  0  0  0  0
    2.9132    3.1023    0.0000 H   0  0  0  0  0  0  0  0  0  0  0  0
   11.8250   -0.7503    0.0000 H   0  0  0  0  0  0  0  0  0  0  0  0
    1.4643    0.6148    0.0000 H   0  0  0  0  0  0  0  0  0  0  0  0
    1.4643    2.2805    0.0000 H   0  0  0  0  0  0  0  0  0  0  0  0
  1 20  1  0  0  0  0
  2 10  2  0  0  0  0
  3  6  1  0  0  0  0
  3  8  1  0  0  0  0
  3  9  1  0  0  0  0
  4  5  1  0  0  0  0
  4  7  1  0  0  0  0
  4 10  1  0  0  0  0
  4 24  1  0  0  0  0
  5  6  1  0  0  0  0
  5 25  1  0  0  0  0
  5 26  1  0  0  0  0
  6 27  1  0  0  0  0
  6 28  1  0  0  0  0
  7 11  1  0  0  0  0
  7 29  1  0  0  0  0
  7 30  1  0  0  0  0
  8 12  1  0  0  0  0
  8 31  1  0  0  0  0
  8 32  1  0  0  0  0
  9 14  1  0  0  0  0
  9 33  1  0  0  0  0
  9 34  1  0  0  0  0
 10 13  1  0  0  0  0
 11 13  2  0  0  0  0
 11 16  1  0  0  0  0
 12 15  1  0  0  0  0
 12 35  1  0  0  0  0
 12 36  1  0  0  0  0
 13 17  1  0  0  0  0
 14 15  1  0  0  0  0
 14 18  2  0  0  0  0
 15 19  2  0  0  0  0
 16 20  2  0  0  0  0
 16 37  1  0  0  0  0
 17 21  2  0  0  0  0
 17 38  1  0  0  0  0
 18 22  1  0  0  0  0
 18 39  1  0  0  0  0
 19 23  1  0  0  0  0
 19 40  1  0  0  0  0
 20 21  1  0  0  0  0
 21 41  1  0  0  0  0
 22 23  2  0  0  0  0
 22 42  1  0  0  0  0
 23 43  1  0  0  0  0
M  END
> <PUBCHEM_COMPOUND_CID>
134155116

> <PUBCHEM_COMPOUND_CANONICALIZED>
1

> <PUBCHEM_CACTVS_COMPLEXITY>
439

> <PUBCHEM_CACTVS_HBOND_ACCEPTOR>
3

> <PUBCHEM_CACTVS_HBOND_DONOR>
0

> <PUBCHEM_CACTVS_ROTATABLE_BOND>
3

> <PUBCHEM_CACTVS_SUBSKEYS>
AAADceB6IQAAAAAAAAAAAAAAAAAAAYAAAAA8YIAAAAAAAGCxQAAAHwAAAAAADQTBmAwwAIMAAACIAqBSAACCAAAkAAAIiAEIBMgIIDKAlRGEIQhggACIiYcciMCOgAAAAAAQAAAAAAAAACAAAQAACAAAAA==

> <PUBCHEM_IUPAC_OPENEYE_NAME>
2-[2-(3,4-dihydro-1H-isoquinolin-2-yl)ethyl]-5-fluoro-indan-1-one

> <PUBCHEM_IUPAC_CAS_NAME>
2-[2-(3,4-dihydro-1H-isoquinolin-2-yl)ethyl]-5-fluoro-2,3-dihydroinden-1-one

> <PUBCHEM_IUPAC_NAME_MARKUP>
2-[2-(3,4-dihydro-1<I>H</I>-isoquinolin-2-yl)ethyl]-5-fluoro-2,3-dihydroinden-1-one

> <PUBCHEM_IUPAC_NAME>
2-[2-(3,4-dihydro-1H-isoquinolin-2-yl)ethyl]-5-fluoro-2,3-dihydroinden-1-one

> <PUBCHEM_IUPAC_SYSTEMATIC_NAME>
2-[2-(3,4-dihydro-1H-isoquinolin-2-yl)ethyl]-5-fluoranyl-2,3-dihydroinden-1-one

> <PUBCHEM_IUPAC_TRADITIONAL_NAME>
2-[2-(3,4-dihydro-1H-isoquinolin-2-yl)ethyl]-5-fluoro-indan-1-one

> <PUBCHEM_IUPAC_INCHI>
InChI=1S/C20H20FNO/c21-18-5-6-19-17(12-18)11-15(20(19)23)8-10-22-9-7-14-3-1-2-4-16(14)13-22/h1-6,12,15H,7-11,13H2

> <PUBCHEM_IUPAC_INCHIKEY>
QIGRVQBAYKSEIV-UHFFFAOYSA-N

> <PUBCHEM_XLOGP3_AA>
3.7

> <PUBCHEM_EXACT_MASS>
309.15289242

> <PUBCHEM_MOLECULAR_FORMULA>
C20H20FNO

> <PUBCHEM_MOLECULAR_WEIGHT>
309.4

> <PUBCHEM_OPENEYE_CAN_SMILES>
C1CN(CC2=CC=CC=C21)CCC3CC4=C(C3=O)C=CC(=C4)F

> <PUBCHEM_OPENEYE_ISO_SMILES>
C1CN(CC2=CC=CC=C21)CCC3CC4=C(C3=O)C=CC(=C4)F

> <PUBCHEM_CACTVS_TPSA>
20.3

> <PUBCHEM_MONOISOTOPIC_WEIGHT>
309.15289242

> <PUBCHEM_TOTAL_CHARGE>
0

> <PUBCHEM_HEAVY_ATOM_COUNT>
23

> <PUBCHEM_ATOM_DEF_STEREO_COUNT>
0

> <PUBCHEM_ATOM_UDEF_STEREO_COUNT>
1

> <PUBCHEM_BOND_DEF_STEREO_COUNT>
0

> <PUBCHEM_BOND_UDEF_STEREO_COUNT>
0

> <PUBCHEM_ISOTOPIC_ATOM_COUNT>
0

> <PUBCHEM_COMPONENT_COUNT>
1

> <PUBCHEM_CACTVS_TAUTO_COUNT>
-1

> <PUBCHEM_COORDINATE_TYPE>
1
5
255

> <PUBCHEM_BONDANNOTATIONS>
11  13  8
11  16  8
13  17  8
14  15  8
14  18  8
15  19  8
16  20  8
17  21  8
18  22  8
19  23  8
20  21  8
22  23  8
4  5  3

$$$$
