155557564
  -OEChem-09292322452D

 73 76  0     1  0  0  0  0  0999 V2000
    2.0000    5.2100    0.0000 Cl  0  0  0  0  0  0  0  0  0  0  0  0
    4.0000    1.7459    0.0000 S   0  0  0  0  0  0  0  0  0  0  0  0
    6.2320   -0.1201    0.0000 F   0  0  0  0  0  0  0  0  0  0  0  0
    6.2320    3.8799    0.0000 F   0  0  0  0  0  0  0  0  0  0  0  0
    3.1340    1.2459    0.0000 O   0  0  0  0  0  0  0  0  0  0  0  0
    4.5000    2.6120    0.0000 O   0  0  0  0  0  0  0  0  0  0  0  0
    6.1372   -4.5680    0.0000 O   0  0  0  0  0  0  0  0  0  0  0  0
    5.6020   -2.9207    0.0000 O   0  0  0  0  0  0  0  0  0  0  0  0
    4.5000   -2.1201    0.0000 N   0  0  0  0  0  0  0  0  0  0  0  0
    4.4430   -4.2079    0.0000 N   0  0  0  0  0  0  0  0  0  0  0  0
    4.5000    0.8799    0.0000 C   0  0  0  0  0  0  0  0  0  0  0  0
    4.5000   -1.1201    0.0000 C   0  0  0  0  0  0  0  0  0  0  0  0
    3.6340    0.3799    0.0000 C   0  0  0  0  0  0  0  0  0  0  0  0
    5.3660    0.3799    0.0000 C   0  0  0  0  0  0  0  0  0  0  0  0
    3.6340   -0.6201    0.0000 C   0  0  0  0  0  0  0  0  0  0  0  0
    5.3660   -0.6201    0.0000 C   0  0  0  0  0  0  0  0  0  0  0  0
    5.3660    1.3799    0.0000 C   0  0  0  0  0  0  0  0  0  0  0  0
    3.6340   -3.6201    0.0000 C   0  0  3  0  0  0  0  0  0  0  0  0
    3.6340   -2.6201    0.0000 C   0  0  0  0  0  0  0  0  0  0  0  0
    2.8250   -4.2079    0.0000 C   0  0  0  0  0  0  0  0  0  0  0  0
    3.5000    2.6120    0.0000 C   0  0  0  0  0  0  0  0  0  0  0  0
    3.1340   -5.1589    0.0000 C   0  0  0  0  0  0  0  0  0  0  0  0
    4.1340   -5.1589    0.0000 C   0  0  0  0  0  0  0  0  0  0  0  0
    6.2320    0.8799    0.0000 C   0  0  0  0  0  0  0  0  0  0  0  0
    5.3660    2.3799    0.0000 C   0  0  0  0  0  0  0  0  0  0  0  0
    5.3940   -3.8989    0.0000 C   0  0  0  0  0  0  0  0  0  0  0  0
    2.5000    2.6120    0.0000 C   0  0  0  0  0  0  0  0  0  0  0  0
    4.0000    3.4780    0.0000 C   0  0  0  0  0  0  0  0  0  0  0  0
    6.2320    2.8799    0.0000 C   0  0  0  0  0  0  0  0  0  0  0  0
    7.0981    1.3799    0.0000 C   0  0  0  0  0  0  0  0  0  0  0  0
    7.0981    2.3799    0.0000 C   0  0  0  0  0  0  0  0  0  0  0  0
    2.0000    3.4780    0.0000 C   0  0  0  0  0  0  0  0  0  0  0  0
    3.5000    4.3440    0.0000 C   0  0  0  0  0  0  0  0  0  0  0  0
    7.0882   -4.2590    0.0000 C   0  0  0  0  0  0  0  0  0  0  0  0
    2.5000    4.3440    0.0000 C   0  0  0  0  0  0  0  0  0  0  0  0
    8.0393   -3.9500    0.0000 C   0  0  0  0  0  0  0  0  0  0  0  0
    7.3973   -5.2100    0.0000 C   0  0  0  0  0  0  0  0  0  0  0  0
    6.7792   -3.3079    0.0000 C   0  0  0  0  0  0  0  0  0  0  0  0
    5.0369   -1.4301    0.0000 H   0  0  0  0  0  0  0  0  0  0  0  0
    3.4219    0.9625    0.0000 H   0  0  0  0  0  0  0  0  0  0  0  0
    3.0234    0.2722    0.0000 H   0  0  0  0  0  0  0  0  0  0  0  0
    5.9766    0.2722    0.0000 H   0  0  0  0  0  0  0  0  0  0  0  0
    5.5781    0.9625    0.0000 H   0  0  0  0  0  0  0  0  0  0  0  0
    3.0234   -0.5124    0.0000 H   0  0  0  0  0  0  0  0  0  0  0  0
    3.4219   -1.2027    0.0000 H   0  0  0  0  0  0  0  0  0  0  0  0
    5.5781   -1.2027    0.0000 H   0  0  0  0  0  0  0  0  0  0  0  0
    5.9766   -0.5124    0.0000 H   0  0  0  0  0  0  0  0  0  0  0  0
    5.0369   -2.4301    0.0000 H   0  0  0  0  0  0  0  0  0  0  0  0
    4.1864   -3.3386    0.0000 H   0  0  0  0  0  0  0  0  0  0  0  0
    3.4219   -2.0375    0.0000 H   0  0  0  0  0  0  0  0  0  0  0  0
    3.0234   -2.7278    0.0000 H   0  0  0  0  0  0  0  0  0  0  0  0
    2.5150   -3.6709    0.0000 H   0  0  0  0  0  0  0  0  0  0  0  0
    2.2586   -4.4601    0.0000 H   0  0  0  0  0  0  0  0  0  0  0  0
    2.5275   -5.2878    0.0000 H   0  0  0  0  0  0  0  0  0  0  0  0
    3.1988   -5.7755    0.0000 H   0  0  0  0  0  0  0  0  0  0  0  0
    4.0692   -5.7755    0.0000 H   0  0  0  0  0  0  0  0  0  0  0  0
    4.7404   -5.2878    0.0000 H   0  0  0  0  0  0  0  0  0  0  0  0
    4.8291    2.6899    0.0000 H   0  0  0  0  0  0  0  0  0  0  0  0
    2.1900    2.0750    0.0000 H   0  0  0  0  0  0  0  0  0  0  0  0
    4.6200    3.4780    0.0000 H   0  0  0  0  0  0  0  0  0  0  0  0
    7.6350    1.0699    0.0000 H   0  0  0  0  0  0  0  0  0  0  0  0
    7.6350    2.6899    0.0000 H   0  0  0  0  0  0  0  0  0  0  0  0
    1.3800    3.4780    0.0000 H   0  0  0  0  0  0  0  0  0  0  0  0
    3.8100    4.8809    0.0000 H   0  0  0  0  0  0  0  0  0  0  0  0
    8.2309   -4.5396    0.0000 H   0  0  0  0  0  0  0  0  0  0  0  0
    8.6290   -3.7584    0.0000 H   0  0  0  0  0  0  0  0  0  0  0  0
    7.8477   -3.3603    0.0000 H   0  0  0  0  0  0  0  0  0  0  0  0
    6.8076   -5.4016    0.0000 H   0  0  0  0  0  0  0  0  0  0  0  0
    7.5889   -5.7997    0.0000 H   0  0  0  0  0  0  0  0  0  0  0  0
    7.9869   -5.0184    0.0000 H   0  0  0  0  0  0  0  0  0  0  0  0
    7.3689   -3.1163    0.0000 H   0  0  0  0  0  0  0  0  0  0  0  0
    6.5876   -2.7183    0.0000 H   0  0  0  0  0  0  0  0  0  0  0  0
    6.1896   -3.4995    0.0000 H   0  0  0  0  0  0  0  0  0  0  0  0
  1 35  1  0  0  0  0
  2  5  2  0  0  0  0
  2  6  2  0  0  0  0
  2 11  1  0  0  0  0
  2 21  1  0  0  0  0
  3 24  1  0  0  0  0
  4 29  1  0  0  0  0
  7 26  1  0  0  0  0
  7 34  1  0  0  0  0
  8 26  2  0  0  0  0
  9 12  1  0  0  0  0
  9 19  1  0  0  0  0
  9 48  1  0  0  0  0
 10 18  1  0  0  0  0
 10 23  1  0  0  0  0
 10 26  1  0  0  0  0
 11 13  1  0  0  0  0
 11 14  1  0  0  0  0
 11 17  1  0  0  0  0
 12 15  1  0  0  0  0
 12 16  1  0  0  0  0
 12 39  1  0  0  0  0
 13 15  1  0  0  0  0
 13 40  1  0  0  0  0
 13 41  1  0  0  0  0
 14 16  1  0  0  0  0
 14 42  1  0  0  0  0
 14 43  1  0  0  0  0
 15 44  1  0  0  0  0
 15 45  1  0  0  0  0
 16 46  1  0  0  0  0
 16 47  1  0  0  0  0
 17 24  2  0  0  0  0
 17 25  1  0  0  0  0
 18 19  1  0  0  0  0
 18 20  1  0  0  0  0
 18 49  1  0  0  0  0
 19 50  1  0  0  0  0
 19 51  1  0  0  0  0
 20 22  1  0  0  0  0
 20 52  1  0  0  0  0
 20 53  1  0  0  0  0
 21 27  2  0  0  0  0
 21 28  1  0  0  0  0
 22 23  1  0  0  0  0
 22 54  1  0  0  0  0
 22 55  1  0  0  0  0
 23 56  1  0  0  0  0
 23 57  1  0  0  0  0
 24 30  1  0  0  0  0
 25 29  2  0  0  0  0
 25 58  1  0  0  0  0
 27 32  1  0  0  0  0
 27 59  1  0  0  0  0
 28 33  2  0  0  0  0
 28 60  1  0  0  0  0
 29 31  1  0  0  0  0
 30 31  2  0  0  0  0
 30 61  1  0  0  0  0
 31 62  1  0  0  0  0
 32 35  2  0  0  0  0
 32 63  1  0  0  0  0
 33 35  1  0  0  0  0
 33 64  1  0  0  0  0
 34 36  1  0  0  0  0
 34 37  1  0  0  0  0
 34 38  1  0  0  0  0
 36 65  1  0  0  0  0
 36 66  1  0  0  0  0
 36 67  1  0  0  0  0
 37 68  1  0  0  0  0
 37 69  1  0  0  0  0
 37 70  1  0  0  0  0
 38 71  1  0  0  0  0
 38 72  1  0  0  0  0
 38 73  1  0  0  0  0
M  END
> <PUBCHEM_COMPOUND_CID>
155557564

> <PUBCHEM_COMPOUND_CANONICALIZED>
1

> <PUBCHEM_CACTVS_COMPLEXITY>
909

> <PUBCHEM_CACTVS_HBOND_ACCEPTOR>
7

> <PUBCHEM_CACTVS_HBOND_DONOR>
1

> <PUBCHEM_CACTVS_ROTATABLE_BOND>
8

> <PUBCHEM_CACTVS_SUBSKEYS>
AAADcfB7OYBEAAAAAAAAAAAAAAAAAWAAAAAwYMAAAAAAAAABQAAAHwYQAAAADG7B2CwyCYPABAqIAiBCGHBCAAAgDRAIiJgIAogIYCKhkxCcIAAglgCoiAcQgMAOgAIAAAAAAAAQDAAAAAAAAAAAAAAAAA==

> <PUBCHEM_IUPAC_OPENEYE_NAME>
tert-butyl 2-[[[4-(4-chlorophenyl)sulfonyl-4-(2,5-difluorophenyl)cyclohexyl]amino]methyl]pyrrolidine-1-carboxylate

> <PUBCHEM_IUPAC_CAS_NAME>
2-[[[4-(4-chlorophenyl)sulfonyl-4-(2,5-difluorophenyl)cyclohexyl]amino]methyl]-1-pyrrolidinecarboxylic acid tert-butyl ester

> <PUBCHEM_IUPAC_NAME_MARKUP>
<I>tert</I>-butyl 2-[[[4-(4-chlorophenyl)sulfonyl-4-(2,5-difluorophenyl)cyclohexyl]amino]methyl]pyrrolidine-1-carboxylate

> <PUBCHEM_IUPAC_NAME>
tert-butyl 2-[[[4-(4-chlorophenyl)sulfonyl-4-(2,5-difluorophenyl)cyclohexyl]amino]methyl]pyrrolidine-1-carboxylate

> <PUBCHEM_IUPAC_SYSTEMATIC_NAME>
tert-butyl 2-[[[4-[2,5-bis(fluoranyl)phenyl]-4-(4-chlorophenyl)sulfonyl-cyclohexyl]amino]methyl]pyrrolidine-1-carboxylate

> <PUBCHEM_IUPAC_TRADITIONAL_NAME>
2-[[[4-(4-chlorophenyl)sulfonyl-4-(2,5-difluorophenyl)cyclohexyl]amino]methyl]pyrrolidine-1-carboxylic acid tert-butyl ester

> <PUBCHEM_IUPAC_INCHI>
InChI=1S/C28H35ClF2N2O4S/c1-27(2,3)37-26(34)33-16-4-5-22(33)18-32-21-12-14-28(15-13-21,24-17-20(30)8-11-25(24)31)38(35,36)23-9-6-19(29)7-10-23/h6-11,17,21-22,32H,4-5,12-16,18H2,1-3H3

> <PUBCHEM_IUPAC_INCHIKEY>
TTWGDSSADVBNQY-UHFFFAOYSA-N

> <PUBCHEM_XLOGP3_AA>
5.6

> <PUBCHEM_EXACT_MASS>
568.1974128

> <PUBCHEM_MOLECULAR_FORMULA>
C28H35ClF2N2O4S

> <PUBCHEM_MOLECULAR_WEIGHT>
569.1

> <PUBCHEM_OPENEYE_CAN_SMILES>
CC(C)(C)OC(=O)N1CCCC1CNC2CCC(CC2)(C3=C(C=CC(=C3)F)F)S(=O)(=O)C4=CC=C(C=C4)Cl

> <PUBCHEM_OPENEYE_ISO_SMILES>
CC(C)(C)OC(=O)N1CCCC1CNC2CCC(CC2)(C3=C(C=CC(=C3)F)F)S(=O)(=O)C4=CC=C(C=C4)Cl

> <PUBCHEM_CACTVS_TPSA>
84.1

> <PUBCHEM_MONOISOTOPIC_WEIGHT>
568.1974128

> <PUBCHEM_TOTAL_CHARGE>
0

> <PUBCHEM_HEAVY_ATOM_COUNT>
38

> <PUBCHEM_ATOM_DEF_STEREO_COUNT>
0

> <PUBCHEM_ATOM_UDEF_STEREO_COUNT>
1

> <PUBCHEM_BOND_DEF_STEREO_COUNT>
0

> <PUBCHEM_BOND_UDEF_STEREO_COUNT>
0

> <PUBCHEM_ISOTOPIC_ATOM_COUNT>
0

> <PUBCHEM_COMPONENT_COUNT>
1

> <PUBCHEM_CACTVS_TAUTO_COUNT>
-1

> <PUBCHEM_COORDINATE_TYPE>
1
5
255

> <PUBCHEM_BONDANNOTATIONS>
17  24  8
17  25  8
18  19  3
21  27  8
21  28  8
24  30  8
25  29  8
27  32  8
28  33  8
29  31  8
30  31  8
32  35  8
33  35  8

$$$$
