10045525
  -OEChem-09292322152D

 53 56  0     1  0  0  0  0  0999 V2000
    8.9962    4.5000    0.0000 Cl  0  0  0  0  0  0  0  0  0  0  0  0
    6.3981   -3.0000    0.0000 O   0  0  0  0  0  0  0  0  0  0  0  0
    6.3981   -1.0000    0.0000 N   0  0  0  0  0  0  0  0  0  0  0  0
    8.1301    0.0000    0.0000 N   0  0  0  0  0  0  0  0  0  0  0  0
    4.6660   -3.0000    0.0000 N   0  0  0  0  0  0  0  0  0  0  0  0
    5.5321   -1.5000    0.0000 C   0  0  3  0  0  0  0  0  0  0  0  0
    6.3981    0.0000    0.0000 C   0  0  0  0  0  0  0  0  0  0  0  0
    7.2641   -1.5000    0.0000 C   0  0  0  0  0  0  0  0  0  0  0  0
    7.2641    0.5000    0.0000 C   0  0  0  0  0  0  0  0  0  0  0  0
    8.1301   -1.0000    0.0000 C   0  0  0  0  0  0  0  0  0  0  0  0
    4.6660   -1.0000    0.0000 C   0  0  0  0  0  0  0  0  0  0  0  0
    5.5321   -2.5000    0.0000 C   0  0  0  0  0  0  0  0  0  0  0  0
    3.8000   -1.5000    0.0000 C   0  0  0  0  0  0  0  0  0  0  0  0
    3.8000   -2.5000    0.0000 C   0  0  0  0  0  0  0  0  0  0  0  0
    8.9962    0.5000    0.0000 C   0  0  0  0  0  0  0  0  0  0  0  0
    4.6660   -4.0000    0.0000 C   0  0  0  0  0  0  0  0  0  0  0  0
    2.9061   -0.9653    0.0000 C   0  0  0  0  0  0  0  0  0  0  0  0
    8.9962    1.5000    0.0000 C   0  0  0  0  0  0  0  0  0  0  0  0
    2.9061   -3.0347    0.0000 C   0  0  0  0  0  0  0  0  0  0  0  0
    2.0000   -1.4792    0.0000 C   0  0  0  0  0  0  0  0  0  0  0  0
    2.0000   -2.5208    0.0000 C   0  0  0  0  0  0  0  0  0  0  0  0
    3.8000   -4.5000    0.0000 C   0  0  0  0  0  0  0  0  0  0  0  0
    8.1301    2.0000    0.0000 C   0  0  0  0  0  0  0  0  0  0  0  0
    9.8622    2.0000    0.0000 C   0  0  0  0  0  0  0  0  0  0  0  0
    8.1301    3.0000    0.0000 C   0  0  0  0  0  0  0  0  0  0  0  0
    9.8622    3.0000    0.0000 C   0  0  0  0  0  0  0  0  0  0  0  0
    8.9962    3.5000    0.0000 C   0  0  0  0  0  0  0  0  0  0  0  0
    5.5321   -0.8800    0.0000 H   0  0  0  0  0  0  0  0  0  0  0  0
    6.1860    0.5826    0.0000 H   0  0  0  0  0  0  0  0  0  0  0  0
    5.7875   -0.1077    0.0000 H   0  0  0  0  0  0  0  0  0  0  0  0
    6.8656   -1.9750    0.0000 H   0  0  0  0  0  0  0  0  0  0  0  0
    7.6626   -1.9750    0.0000 H   0  0  0  0  0  0  0  0  0  0  0  0
    7.6626    0.9749    0.0000 H   0  0  0  0  0  0  0  0  0  0  0  0
    6.8656    0.9749    0.0000 H   0  0  0  0  0  0  0  0  0  0  0  0
    8.3422   -1.5826    0.0000 H   0  0  0  0  0  0  0  0  0  0  0  0
    8.7407   -0.8923    0.0000 H   0  0  0  0  0  0  0  0  0  0  0  0
    5.0646   -0.5251    0.0000 H   0  0  0  0  0  0  0  0  0  0  0  0
    4.2675   -0.5251    0.0000 H   0  0  0  0  0  0  0  0  0  0  0  0
    9.2082   -0.0826    0.0000 H   0  0  0  0  0  0  0  0  0  0  0  0
    9.6067    0.6077    0.0000 H   0  0  0  0  0  0  0  0  0  0  0  0
    4.8781   -4.5826    0.0000 H   0  0  0  0  0  0  0  0  0  0  0  0
    5.2766   -3.8923    0.0000 H   0  0  0  0  0  0  0  0  0  0  0  0
    2.9132   -0.3454    0.0000 H   0  0  0  0  0  0  0  0  0  0  0  0
    2.9132   -3.6546    0.0000 H   0  0  0  0  0  0  0  0  0  0  0  0
    1.4643   -1.1671    0.0000 H   0  0  0  0  0  0  0  0  0  0  0  0
    1.4643   -2.8329    0.0000 H   0  0  0  0  0  0  0  0  0  0  0  0
    3.4900   -3.9631    0.0000 H   0  0  0  0  0  0  0  0  0  0  0  0
    3.2631   -4.8100    0.0000 H   0  0  0  0  0  0  0  0  0  0  0  0
    4.1100   -5.0369    0.0000 H   0  0  0  0  0  0  0  0  0  0  0  0
    7.5932    1.6900    0.0000 H   0  0  0  0  0  0  0  0  0  0  0  0
   10.3991    1.6900    0.0000 H   0  0  0  0  0  0  0  0  0  0  0  0
    7.5932    3.3100    0.0000 H   0  0  0  0  0  0  0  0  0  0  0  0
   10.3991    3.3100    0.0000 H   0  0  0  0  0  0  0  0  0  0  0  0
  1 27  1  0  0  0  0
  2 12  2  0  0  0  0
  3  6  1  0  0  0  0
  3  7  1  0  0  0  0
  3  8  1  0  0  0  0
  4  9  1  0  0  0  0
  4 10  1  0  0  0  0
  4 15  1  0  0  0  0
  5 12  1  0  0  0  0
  5 14  1  0  0  0  0
  5 16  1  0  0  0  0
  6 11  1  0  0  0  0
  6 12  1  0  0  0  0
  6 28  1  0  0  0  0
  7  9  1  0  0  0  0
  7 29  1  0  0  0  0
  7 30  1  0  0  0  0
  8 10  1  0  0  0  0
  8 31  1  0  0  0  0
  8 32  1  0  0  0  0
  9 33  1  0  0  0  0
  9 34  1  0  0  0  0
 10 35  1  0  0  0  0
 10 36  1  0  0  0  0
 11 13  1  0  0  0  0
 11 37  1  0  0  0  0
 11 38  1  0  0  0  0
 13 14  1  0  0  0  0
 13 17  2  0  0  0  0
 14 19  2  0  0  0  0
 15 18  1  0  0  0  0
 15 39  1  0  0  0  0
 15 40  1  0  0  0  0
 16 22  1  0  0  0  0
 16 41  1  0  0  0  0
 16 42  1  0  0  0  0
 17 20  1  0  0  0  0
 17 43  1  0  0  0  0
 18 23  2  0  0  0  0
 18 24  1  0  0  0  0
 19 21  1  0  0  0  0
 19 44  1  0  0  0  0
 20 21  2  0  0  0  0
 20 45  1  0  0  0  0
 21 46  1  0  0  0  0
 22 47  1  0  0  0  0
 22 48  1  0  0  0  0
 22 49  1  0  0  0  0
 23 25  1  0  0  0  0
 23 50  1  0  0  0  0
 24 26  2  0  0  0  0
 24 51  1  0  0  0  0
 25 27  2  0  0  0  0
 25 52  1  0  0  0  0
 26 27  1  0  0  0  0
 26 53  1  0  0  0  0
M  END
> <PUBCHEM_COMPOUND_CID>
10045525

> <PUBCHEM_COMPOUND_CANONICALIZED>
1

> <PUBCHEM_CACTVS_COMPLEXITY>
500

> <PUBCHEM_CACTVS_HBOND_ACCEPTOR>
3

> <PUBCHEM_CACTVS_HBOND_DONOR>
0

> <PUBCHEM_CACTVS_ROTATABLE_BOND>
4

> <PUBCHEM_CACTVS_SUBSKEYS>
AAADceB7IAAEAAAAAAAAAAAAAAAAAAAAAAA8eIEAAAAAAACxQAAAHgIAAAAADCrBmCQywIMAAACIAiVSUACCAAAhBwAIiAGIZogIYDLBk7GUIAhghgDIyAcYiYCeBAAAAAACAAAIAAAAAAQAAAAAAAAAAA==

> <PUBCHEM_IUPAC_OPENEYE_NAME>
3-[4-[(4-chlorophenyl)methyl]piperazin-1-yl]-1-ethyl-3,4-dihydroquinolin-2-one

> <PUBCHEM_IUPAC_CAS_NAME>
3-[4-[(4-chlorophenyl)methyl]-1-piperazinyl]-1-ethyl-3,4-dihydroquinolin-2-one

> <PUBCHEM_IUPAC_NAME_MARKUP>
3-[4-[(4-chlorophenyl)methyl]piperazin-1-yl]-1-ethyl-3,4-dihydroquinolin-2-one

> <PUBCHEM_IUPAC_NAME>
3-[4-[(4-chlorophenyl)methyl]piperazin-1-yl]-1-ethyl-3,4-dihydroquinolin-2-one

> <PUBCHEM_IUPAC_SYSTEMATIC_NAME>
3-[4-[(4-chlorophenyl)methyl]piperazin-1-yl]-1-ethyl-3,4-dihydroquinolin-2-one

> <PUBCHEM_IUPAC_TRADITIONAL_NAME>
3-[4-(4-chlorobenzyl)piperazino]-1-ethyl-3,4-dihydrocarbostyril

> <PUBCHEM_IUPAC_INCHI>
InChI=1S/C22H26ClN3O/c1-2-26-20-6-4-3-5-18(20)15-21(22(26)27)25-13-11-24(12-14-25)16-17-7-9-19(23)10-8-17/h3-10,21H,2,11-16H2,1H3

> <PUBCHEM_IUPAC_INCHIKEY>
BZWQAKCTTBOIKJ-UHFFFAOYSA-N

> <PUBCHEM_XLOGP3_AA>
3.7

> <PUBCHEM_EXACT_MASS>
383.1764402

> <PUBCHEM_MOLECULAR_FORMULA>
C22H26ClN3O

> <PUBCHEM_MOLECULAR_WEIGHT>
383.9

> <PUBCHEM_OPENEYE_CAN_SMILES>
CCN1C2=CC=CC=C2CC(C1=O)N3CCN(CC3)CC4=CC=C(C=C4)Cl

> <PUBCHEM_OPENEYE_ISO_SMILES>
CCN1C2=CC=CC=C2CC(C1=O)N3CCN(CC3)CC4=CC=C(C=C4)Cl

> <PUBCHEM_CACTVS_TPSA>
26.8

> <PUBCHEM_MONOISOTOPIC_WEIGHT>
383.1764402

> <PUBCHEM_TOTAL_CHARGE>
0

> <PUBCHEM_HEAVY_ATOM_COUNT>
27

> <PUBCHEM_ATOM_DEF_STEREO_COUNT>
0

> <PUBCHEM_ATOM_UDEF_STEREO_COUNT>
1

> <PUBCHEM_BOND_DEF_STEREO_COUNT>
0

> <PUBCHEM_BOND_UDEF_STEREO_COUNT>
0

> <PUBCHEM_ISOTOPIC_ATOM_COUNT>
0

> <PUBCHEM_COMPONENT_COUNT>
1

> <PUBCHEM_CACTVS_TAUTO_COUNT>
-1

> <PUBCHEM_COORDINATE_TYPE>
1
5
255

> <PUBCHEM_BONDANNOTATIONS>
13  14  8
13  17  8
14  19  8
17  20  8
18  23  8
18  24  8
19  21  8
20  21  8
23  25  8
24  26  8
25  27  8
26  27  8
6  3  3

$$$$
