155510939
  -OEChem-09292322072D

 52 57  0     1  0  0  0  0  0999 V2000
    8.3943   -1.3267    0.0000 O   0  0  0  0  0  0  0  0  0  0  0  0
    3.7088    0.1772    0.0000 O   0  0  0  0  0  0  0  0  0  0  0  0
    9.8462   -0.4884    0.0000 O   0  0  0  0  0  0  0  0  0  0  0  0
    6.4284    2.7549    0.0000 N   0  0  3  0  0  0  0  0  0  0  0  0
    6.4284    1.7549    0.0000 C   0  0  3  0  0  0  0  0  0  0  0  0
    5.5345    1.2202    0.0000 C   0  0  0  0  0  0  0  0  0  0  0  0
    7.2944    1.2549    0.0000 C   0  0  0  0  0  0  0  0  0  0  0  0
    7.2944    3.2549    0.0000 C   0  0  0  0  0  0  0  0  0  0  0  0
    5.5345    3.2895    0.0000 C   0  0  0  0  0  0  0  0  0  0  0  0
    8.1605    2.7549    0.0000 C   0  0  0  0  0  0  0  0  0  0  0  0
    8.1605    1.7549    0.0000 C   0  0  0  0  0  0  0  0  0  0  0  0
    4.6284    1.7340    0.0000 C   0  0  0  0  0  0  0  0  0  0  0  0
    4.6284    2.7757    0.0000 C   0  0  0  0  0  0  0  0  0  0  0  0
    7.2784    0.2134    0.0000 C   0  0  0  0  0  0  0  0  0  0  0  0
    9.0705    1.2480    0.0000 C   0  0  0  0  0  0  0  0  0  0  0  0
    3.6972    1.1771    0.0000 C   0  0  0  0  0  0  0  0  0  0  0  0
    3.6972    3.3326    0.0000 C   0  0  0  0  0  0  0  0  0  0  0  0
    8.1764   -0.3144    0.0000 C   0  0  0  0  0  0  0  0  0  0  0  0
    9.0785    0.2064    0.0000 C   0  0  0  0  0  0  0  0  0  0  0  0
    2.7535    1.7124    0.0000 C   0  0  0  0  0  0  0  0  0  0  0  0
    2.7535    2.7973    0.0000 C   0  0  0  0  0  0  0  0  0  0  0  0
    9.4242   -1.4340    0.0000 C   0  0  0  0  0  0  0  0  0  0  0  0
    2.8486   -0.3328    0.0000 C   0  0  0  0  0  0  0  0  0  0  0  0
    2.8602   -1.3327    0.0000 C   0  0  0  0  0  0  0  0  0  0  0  0
    2.0000   -1.8427    0.0000 C   0  0  0  0  0  0  0  0  0  0  0  0
    3.7319   -1.8227    0.0000 C   0  0  0  0  0  0  0  0  0  0  0  0
    2.0116   -2.8426    0.0000 C   0  0  0  0  0  0  0  0  0  0  0  0
    3.7435   -2.8226    0.0000 C   0  0  0  0  0  0  0  0  0  0  0  0
    2.8833   -3.3326    0.0000 C   0  0  0  0  0  0  0  0  0  0  0  0
    6.4332    1.1349    0.0000 H   0  0  0  0  0  0  0  0  0  0  0  0
    5.1408    0.7412    0.0000 H   0  0  0  0  0  0  0  0  0  0  0  0
    5.9391    0.7504    0.0000 H   0  0  0  0  0  0  0  0  0  0  0  0
    7.6930    3.7298    0.0000 H   0  0  0  0  0  0  0  0  0  0  0  0
    6.8959    3.7298    0.0000 H   0  0  0  0  0  0  0  0  0  0  0  0
    5.9391    3.7593    0.0000 H   0  0  0  0  0  0  0  0  0  0  0  0
    5.1408    3.7685    0.0000 H   0  0  0  0  0  0  0  0  0  0  0  0
    8.7710    2.6472    0.0000 H   0  0  0  0  0  0  0  0  0  0  0  0
    8.3725    3.3375    0.0000 H   0  0  0  0  0  0  0  0  0  0  0  0
    6.7379   -0.0904    0.0000 H   0  0  0  0  0  0  0  0  0  0  0  0
    9.6038    1.5642    0.0000 H   0  0  0  0  0  0  0  0  0  0  0  0
    3.7044    3.9526    0.0000 H   0  0  0  0  0  0  0  0  0  0  0  0
    2.2177    1.4003    0.0000 H   0  0  0  0  0  0  0  0  0  0  0  0
    2.2177    3.1094    0.0000 H   0  0  0  0  0  0  0  0  0  0  0  0
    9.2955   -2.0405    0.0000 H   0  0  0  0  0  0  0  0  0  0  0  0
   10.0138   -1.6258    0.0000 H   0  0  0  0  0  0  0  0  0  0  0  0
    2.6298    0.2473    0.0000 H   0  0  0  0  0  0  0  0  0  0  0  0
    2.2393   -0.4475    0.0000 H   0  0  0  0  0  0  0  0  0  0  0  0
    1.4595   -1.5389    0.0000 H   0  0  0  0  0  0  0  0  0  0  0  0
    4.2652   -1.5065    0.0000 H   0  0  0  0  0  0  0  0  0  0  0  0
    1.4782   -3.1588    0.0000 H   0  0  0  0  0  0  0  0  0  0  0  0
    4.2840   -3.1264    0.0000 H   0  0  0  0  0  0  0  0  0  0  0  0
    2.8905   -3.9526    0.0000 H   0  0  0  0  0  0  0  0  0  0  0  0
  1 18  1  0  0  0  0
  1 22  1  0  0  0  0
  2 16  1  0  0  0  0
  2 23  1  0  0  0  0
  3 19  1  0  0  0  0
  3 22  1  0  0  0  0
  4  5  1  0  0  0  0
  4  8  1  0  0  0  0
  4  9  1  0  0  0  0
  5  6  1  0  0  0  0
  5  7  1  0  0  0  0
  5 30  1  0  0  0  0
  6 12  1  0  0  0  0
  6 31  1  0  0  0  0
  6 32  1  0  0  0  0
  7 11  1  0  0  0  0
  7 14  2  0  0  0  0
  8 10  1  0  0  0  0
  8 33  1  0  0  0  0
  8 34  1  0  0  0  0
  9 13  1  0  0  0  0
  9 35  1  0  0  0  0
  9 36  1  0  0  0  0
 10 11  1  0  0  0  0
 10 37  1  0  0  0  0
 10 38  1  0  0  0  0
 11 15  2  0  0  0  0
 12 13  2  0  0  0  0
 12 16  1  0  0  0  0
 13 17  1  0  0  0  0
 14 18  1  0  0  0  0
 14 39  1  0  0  0  0
 15 19  1  0  0  0  0
 15 40  1  0  0  0  0
 16 20  2  0  0  0  0
 17 21  2  0  0  0  0
 17 41  1  0  0  0  0
 18 19  2  0  0  0  0
 20 21  1  0  0  0  0
 20 42  1  0  0  0  0
 21 43  1  0  0  0  0
 22 44  1  0  0  0  0
 22 45  1  0  0  0  0
 23 24  1  0  0  0  0
 23 46  1  0  0  0  0
 23 47  1  0  0  0  0
 24 25  2  0  0  0  0
 24 26  1  0  0  0  0
 25 27  1  0  0  0  0
 25 48  1  0  0  0  0
 26 28  2  0  0  0  0
 26 49  1  0  0  0  0
 27 29  2  0  0  0  0
 27 50  1  0  0  0  0
 28 29  1  0  0  0  0
 28 51  1  0  0  0  0
 29 52  1  0  0  0  0
M  END
> <PUBCHEM_COMPOUND_CID>
155510939

> <PUBCHEM_COMPOUND_CANONICALIZED>
1

> <PUBCHEM_CACTVS_COMPLEXITY>
564

> <PUBCHEM_CACTVS_HBOND_ACCEPTOR>
4

> <PUBCHEM_CACTVS_HBOND_DONOR>
0

> <PUBCHEM_CACTVS_ROTATABLE_BOND>
3

> <PUBCHEM_CACTVS_SUBSKEYS>
AAADceB6MAAAAAAAAAAAAAAAAAAAASAAAAA8eMECAAAAAEixUAAAHgAAAAAADCzhmAcwDoMABACAAiBCAACCCAAgIAAIiAAOjIgdJiKEsRumOCrkwBGOqAew0PMOoAABAAAYQABAAAIAADCAAAAAAAAAAA==

> <PUBCHEM_IUPAC_OPENEYE_NAME>
19-benzyloxy-5,7-dioxa-13-azapentacyclo[11.8.0.02,10.04,8.015,20]henicosa-2,4(8),9,15(20),16,18-hexaene

> <PUBCHEM_IUPAC_CAS_NAME>
19-phenylmethoxy-5,7-dioxa-13-azapentacyclo[11.8.0.02,10.04,8.015,20]heneicosa-2,4(8),9,15(20),16,18-hexaene

> <PUBCHEM_IUPAC_NAME_MARKUP>
19-phenylmethoxy-5,7-dioxa-13-azapentacyclo[11.8.0.0<SUP>2,10</SUP>.0<SUP>4,8</SUP>.0<SUP>15,20</SUP>]henicosa-2,4(8),9,15(20),16,18-hexaene

> <PUBCHEM_IUPAC_NAME>
19-phenylmethoxy-5,7-dioxa-13-azapentacyclo[11.8.0.02,10.04,8.015,20]henicosa-2,4(8),9,15(20),16,18-hexaene

> <PUBCHEM_IUPAC_SYSTEMATIC_NAME>
19-phenylmethoxy-5,7-dioxa-13-azapentacyclo[11.8.0.02,10.04,8.015,20]henicosa-2,4(8),9,15(20),16,18-hexaene

> <PUBCHEM_IUPAC_TRADITIONAL_NAME>
19-benzoxy-5,7-dioxa-13-azapentacyclo[11.8.0.02,10.04,8.015,20]heneicosa-2,4(8),9,15(20),16,18-hexaene

> <PUBCHEM_IUPAC_INCHI>
InChI=1S/C25H23NO3/c1-2-5-17(6-3-1)15-27-23-8-4-7-19-14-26-10-9-18-11-24-25(29-16-28-24)13-20(18)22(26)12-21(19)23/h1-8,11,13,22H,9-10,12,14-16H2

> <PUBCHEM_IUPAC_INCHIKEY>
WFKPNKOTCAMQAK-UHFFFAOYSA-N

> <PUBCHEM_XLOGP3_AA>
4.6

> <PUBCHEM_EXACT_MASS>
385.16779360

> <PUBCHEM_MOLECULAR_FORMULA>
C25H23NO3

> <PUBCHEM_MOLECULAR_WEIGHT>
385.5

> <PUBCHEM_OPENEYE_CAN_SMILES>
C1CN2CC3=C(CC2C4=CC5=C(C=C41)OCO5)C(=CC=C3)OCC6=CC=CC=C6

> <PUBCHEM_OPENEYE_ISO_SMILES>
C1CN2CC3=C(CC2C4=CC5=C(C=C41)OCO5)C(=CC=C3)OCC6=CC=CC=C6

> <PUBCHEM_CACTVS_TPSA>
30.9

> <PUBCHEM_MONOISOTOPIC_WEIGHT>
385.16779360

> <PUBCHEM_TOTAL_CHARGE>
0

> <PUBCHEM_HEAVY_ATOM_COUNT>
29

> <PUBCHEM_ATOM_DEF_STEREO_COUNT>
0

> <PUBCHEM_ATOM_UDEF_STEREO_COUNT>
1

> <PUBCHEM_BOND_DEF_STEREO_COUNT>
0

> <PUBCHEM_BOND_UDEF_STEREO_COUNT>
0

> <PUBCHEM_ISOTOPIC_ATOM_COUNT>
0

> <PUBCHEM_COMPONENT_COUNT>
1

> <PUBCHEM_CACTVS_TAUTO_COUNT>
-1

> <PUBCHEM_COORDINATE_TYPE>
1
5
255

> <PUBCHEM_BONDANNOTATIONS>
11  15  8
12  13  8
12  16  8
13  17  8
14  18  8
15  19  8
16  20  8
17  21  8
18  19  8
20  21  8
24  25  8
24  26  8
25  27  8
26  28  8
27  29  8
28  29  8
5  6  3
7  11  8
7  14  8

$$$$
