44330567
  -OEChem-09292322192D

 26 28  0     0  0  0  0  0  0999 V2000
    7.0810   -0.4107    0.0000 Cl  0  0  0  0  0  0  0  0  0  0  0  0
    3.9181   -1.9338    0.0000 Cl  0  0  0  0  0  0  0  0  0  0  0  0
    5.6180   -1.4182    0.0000 S   0  0  0  0  0  0  0  0  0  0  0  0
    2.7480   -0.3306    0.0000 N   0  0  0  0  0  0  0  0  0  0  0  0
    2.0000    0.3241    0.0000 N   0  0  0  0  0  0  0  0  0  0  0  0
    5.0037    1.9338    0.0000 C   0  0  0  0  0  0  0  0  0  0  0  0
    4.0037    1.9338    0.0000 C   0  0  0  0  0  0  0  0  0  0  0  0
    5.6272    1.1520    0.0000 C   0  0  0  0  0  0  0  0  0  0  0  0
    3.3802    1.1520    0.0000 C   0  0  0  0  0  0  0  0  0  0  0  0
    3.6027    0.1771    0.0000 C   0  0  0  0  0  0  0  0  0  0  0  0
    5.4047    0.1771    0.0000 C   0  0  0  0  0  0  0  0  0  0  0  0
    4.5037   -0.2568    0.0000 C   0  0  0  0  0  0  0  0  0  0  0  0
    2.3899    1.2386    0.0000 C   0  0  0  0  0  0  0  0  0  0  0  0
    6.0898   -0.5432    0.0000 C   0  0  0  0  0  0  0  0  0  0  0  0
    4.6397   -1.2415    0.0000 C   0  0  0  0  0  0  0  0  0  0  0  0
    2.6567   -1.3264    0.0000 C   0  0  0  0  0  0  0  0  0  0  0  0
    5.5623    2.2029    0.0000 H   0  0  0  0  0  0  0  0  0  0  0  0
    4.8657    2.5383    0.0000 H   0  0  0  0  0  0  0  0  0  0  0  0
    4.1417    2.5383    0.0000 H   0  0  0  0  0  0  0  0  0  0  0  0
    3.4451    2.2029    0.0000 H   0  0  0  0  0  0  0  0  0  0  0  0
    6.1858    0.8830    0.0000 H   0  0  0  0  0  0  0  0  0  0  0  0
    6.0138    1.6368    0.0000 H   0  0  0  0  0  0  0  0  0  0  0  0
    2.0710    1.7702    0.0000 H   0  0  0  0  0  0  0  0  0  0  0  0
    2.0393   -1.2697    0.0000 H   0  0  0  0  0  0  0  0  0  0  0  0
    2.6000   -1.9438    0.0000 H   0  0  0  0  0  0  0  0  0  0  0  0
    3.2741   -1.3830    0.0000 H   0  0  0  0  0  0  0  0  0  0  0  0
  1 14  1  0  0  0  0
  2 15  1  0  0  0  0
  3 14  1  0  0  0  0
  3 15  1  0  0  0  0
  4  5  1  0  0  0  0
  4 10  1  0  0  0  0
  4 16  1  0  0  0  0
  5 13  2  0  0  0  0
  6  7  1  0  0  0  0
  6  8  1  0  0  0  0
  6 17  1  0  0  0  0
  6 18  1  0  0  0  0
  7  9  1  0  0  0  0
  7 19  1  0  0  0  0
  7 20  1  0  0  0  0
  8 11  1  0  0  0  0
  8 21  1  0  0  0  0
  8 22  1  0  0  0  0
  9 10  2  0  0  0  0
  9 13  1  0  0  0  0
 10 12  1  0  0  0  0
 11 12  1  0  0  0  0
 11 14  2  0  0  0  0
 12 15  2  0  0  0  0
 13 23  1  0  0  0  0
 16 24  1  0  0  0  0
 16 25  1  0  0  0  0
 16 26  1  0  0  0  0
M  END
> <PUBCHEM_COMPOUND_CID>
44330567

> <PUBCHEM_COMPOUND_CANONICALIZED>
1

> <PUBCHEM_CACTVS_COMPLEXITY>
279

> <PUBCHEM_CACTVS_HBOND_ACCEPTOR>
2

> <PUBCHEM_CACTVS_HBOND_DONOR>
0

> <PUBCHEM_CACTVS_ROTATABLE_BOND>
0

> <PUBCHEM_CACTVS_SUBSKEYS>
AAADccBzAABGAAAAAAAAAAAAAAAAAWJAAAAAAAAABgAAAACx4AAAHAYIAAAADArBXiQugZIIAAimAxRnRACTBIAhjBAQ2DAoRpgIIKLh08GEpAhgiABoyAcQgMAOgAAAAAAAAAAAAAAAAAAAAAAAAAAAAA==

> <PUBCHEM_IUPAC_OPENEYE_NAME>
11,13-dichloro-3-methyl-12-thia-3,4-diazatricyclo[8.3.0.02,6]trideca-1(13),2(6),4,10-tetraene

> <PUBCHEM_IUPAC_CAS_NAME>
11,13-dichloro-3-methyl-12-thia-3,4-diazatricyclo[8.3.0.02,6]trideca-1(13),2(6),4,10-tetraene

> <PUBCHEM_IUPAC_NAME_MARKUP>
11,13-dichloro-3-methyl-12-thia-3,4-diazatricyclo[8.3.0.0<SUP>2,6</SUP>]trideca-1(13),2(6),4,10-tetraene

> <PUBCHEM_IUPAC_NAME>
11,13-dichloro-3-methyl-12-thia-3,4-diazatricyclo[8.3.0.02,6]trideca-1(13),2(6),4,10-tetraene

> <PUBCHEM_IUPAC_SYSTEMATIC_NAME>
11,13-bis(chloranyl)-3-methyl-12-thia-3,4-diazatricyclo[8.3.0.02,6]trideca-1(13),2(6),4,10-tetraene

> <PUBCHEM_IUPAC_TRADITIONAL_NAME>
11,13-dichloro-3-methyl-12-thia-3,4-diazatricyclo[8.3.0.02,6]trideca-1(13),2(6),4,10-tetraene

> <PUBCHEM_IUPAC_INCHI>
InChI=1S/C11H10Cl2N2S/c1-15-9-6(5-14-15)3-2-4-7-8(9)11(13)16-10(7)12/h5H,2-4H2,1H3

> <PUBCHEM_IUPAC_INCHIKEY>
LJJVIBSUZHHKRE-UHFFFAOYSA-N

> <PUBCHEM_XLOGP3_AA>
4.3

> <PUBCHEM_EXACT_MASS>
271.9941749

> <PUBCHEM_MOLECULAR_FORMULA>
C11H10Cl2N2S

> <PUBCHEM_MOLECULAR_WEIGHT>
273.2

> <PUBCHEM_OPENEYE_CAN_SMILES>
CN1C2=C(CCCC3=C(SC(=C32)Cl)Cl)C=N1

> <PUBCHEM_OPENEYE_ISO_SMILES>
CN1C2=C(CCCC3=C(SC(=C32)Cl)Cl)C=N1

> <PUBCHEM_CACTVS_TPSA>
46.1

> <PUBCHEM_MONOISOTOPIC_WEIGHT>
271.9941749

> <PUBCHEM_TOTAL_CHARGE>
0

> <PUBCHEM_HEAVY_ATOM_COUNT>
16

> <PUBCHEM_ATOM_DEF_STEREO_COUNT>
0

> <PUBCHEM_ATOM_UDEF_STEREO_COUNT>
0

> <PUBCHEM_BOND_DEF_STEREO_COUNT>
0

> <PUBCHEM_BOND_UDEF_STEREO_COUNT>
0

> <PUBCHEM_ISOTOPIC_ATOM_COUNT>
0

> <PUBCHEM_COMPONENT_COUNT>
1

> <PUBCHEM_CACTVS_TAUTO_COUNT>
-1

> <PUBCHEM_COORDINATE_TYPE>
1
5
255

> <PUBCHEM_BONDANNOTATIONS>
11  12  8
11  14  8
12  15  8
3  14  8
3  15  8
4  10  8
4  5  8
5  13  8
9  10  8
9  13  8

$$$$
