13720687
  -OEChem-09292321582D

 53 54  0     1  0  0  0  0  0999 V2000
    5.8830    0.0000    0.0000 Br  0  0  0  0  0  0  0  0  0  0  0  0
    4.1014   10.5303    0.0000 S   0  0  0  0  0  0  0  0  0  0  0  0
    7.6647    3.0587    0.0000 O   0  0  0  0  0  0  0  0  0  0  0  0
    7.6647    1.0104    0.0000 O   0  0  0  0  0  0  0  0  0  0  0  0
    5.1089    7.0578    0.0000 O   0  0  0  0  0  0  0  0  0  0  0  0
    4.9675   11.0303    0.0000 O   0  0  0  0  0  0  0  0  0  0  0  0
    3.6014   11.3963    0.0000 O   0  0  0  0  0  0  0  0  0  0  0  0
    4.6014    9.6643    0.0000 O   0  0  0  0  0  0  0  0  0  0  0  0
    2.8100    2.0346    0.0000 N   0  0  3  0  0  0  0  0  0  0  0  0
    4.2188    3.1581    0.0000 C   0  0  3  0  0  0  0  0  0  0  0  0
    3.2439    2.9356    0.0000 C   0  0  0  0  0  0  0  0  0  0  0  0
    5.0006    2.5346    0.0000 C   0  0  0  0  0  0  0  0  0  0  0  0
    3.2439    1.1336    0.0000 C   0  0  0  0  0  0  0  0  0  0  0  0
    4.2188    0.9111    0.0000 C   0  0  0  0  0  0  0  0  0  0  0  0
    5.0006    1.5346    0.0000 C   0  0  0  0  0  0  0  0  0  0  0  0
    4.4413    4.1330    0.0000 C   0  0  0  0  0  0  0  0  0  0  0  0
    1.8100    2.0346    0.0000 C   0  0  0  0  0  0  0  0  0  0  0  0
    5.8946    3.0693    0.0000 C   0  0  0  0  0  0  0  0  0  0  0  0
    5.8946    0.9999    0.0000 C   0  0  0  0  0  0  0  0  0  0  0  0
    6.8006    2.5554    0.0000 C   0  0  0  0  0  0  0  0  0  0  0  0
    3.7083    4.8132    0.0000 C   0  0  0  0  0  0  0  0  0  0  0  0
    5.3969    4.4278    0.0000 C   0  0  0  0  0  0  0  0  0  0  0  0
    6.8006    1.5138    0.0000 C   0  0  0  0  0  0  0  0  0  0  0  0
    1.3100    1.1686    0.0000 C   0  0  0  0  0  0  0  0  0  0  0  0
    3.9308    5.7881    0.0000 C   0  0  0  0  0  0  0  0  0  0  0  0
    5.6194    5.4027    0.0000 C   0  0  0  0  0  0  0  0  0  0  0  0
    4.8864    6.0829    0.0000 C   0  0  0  0  0  0  0  0  0  0  0  0
    0.3100    1.1686    0.0000 C   0  0  0  0  0  0  0  0  0  0  0  0
    3.2354   10.0303    0.0000 C   0  0  0  0  0  0  0  0  0  0  0  0
    3.7804    3.5965    0.0000 H   0  0  0  0  0  0  0  0  0  0  0  0
    3.2439    3.5556    0.0000 H   0  0  0  0  0  0  0  0  0  0  0  0
    2.6394    3.0735    0.0000 H   0  0  0  0  0  0  0  0  0  0  0  0
    2.6394    0.9957    0.0000 H   0  0  0  0  0  0  0  0  0  0  0  0
    3.2439    0.5136    0.0000 H   0  0  0  0  0  0  0  0  0  0  0  0
    3.9498    0.3525    0.0000 H   0  0  0  0  0  0  0  0  0  0  0  0
    4.7036    0.5245    0.0000 H   0  0  0  0  0  0  0  0  0  0  0  0
    1.9177    2.6452    0.0000 H   0  0  0  0  0  0  0  0  0  0  0  0
    1.2274    2.2466    0.0000 H   0  0  0  0  0  0  0  0  0  0  0  0
    5.8874    3.6892    0.0000 H   0  0  0  0  0  0  0  0  0  0  0  0
    3.1158    4.6304    0.0000 H   0  0  0  0  0  0  0  0  0  0  0  0
    5.8514    4.0061    0.0000 H   0  0  0  0  0  0  0  0  0  0  0  0
    1.6200    0.6316    0.0000 H   0  0  0  0  0  0  0  0  0  0  0  0
    3.4763    6.2098    0.0000 H   0  0  0  0  0  0  0  0  0  0  0  0
    6.2119    5.5854    0.0000 H   0  0  0  0  0  0  0  0  0  0  0  0
    8.2029    2.7508    0.0000 H   0  0  0  0  0  0  0  0  0  0  0  0
    7.6624    0.3904    0.0000 H   0  0  0  0  0  0  0  0  0  0  0  0
    0.0000    1.7055    0.0000 H   0  0  0  0  0  0  0  0  0  0  0  0
    0.0000    0.6316    0.0000 H   0  0  0  0  0  0  0  0  0  0  0  0
    4.6544    7.4795    0.0000 H   0  0  0  0  0  0  0  0  0  0  0  0
    2.9254   10.5673    0.0000 H   0  0  0  0  0  0  0  0  0  0  0  0
    2.6985    9.7203    0.0000 H   0  0  0  0  0  0  0  0  0  0  0  0
    3.5454    9.4934    0.0000 H   0  0  0  0  0  0  0  0  0  0  0  0
    5.5044   10.7203    0.0000 H   0  0  0  0  0  0  0  0  0  0  0  0
  1 19  1  0  0  0  0
  2  6  1  0  0  0  0
  2  7  2  0  0  0  0
  2  8  2  0  0  0  0
  2 29  1  0  0  0  0
  3 20  1  0  0  0  0
  3 45  1  0  0  0  0
  4 23  1  0  0  0  0
  4 46  1  0  0  0  0
  5 27  1  0  0  0  0
  5 49  1  0  0  0  0
  6 53  1  0  0  0  0
  9 11  1  0  0  0  0
  9 13  1  0  0  0  0
  9 17  1  0  0  0  0
 10 11  1  0  0  0  0
 10 12  1  0  0  0  0
 10 16  1  0  0  0  0
 10 30  1  0  0  0  0
 11 31  1  0  0  0  0
 11 32  1  0  0  0  0
 12 15  1  0  0  0  0
 12 18  2  0  0  0  0
 13 14  1  0  0  0  0
 13 33  1  0  0  0  0
 13 34  1  0  0  0  0
 14 15  1  0  0  0  0
 14 35  1  0  0  0  0
 14 36  1  0  0  0  0
 15 19  2  0  0  0  0
 16 21  2  0  0  0  0
 16 22  1  0  0  0  0
 17 24  1  0  0  0  0
 17 37  1  0  0  0  0
 17 38  1  0  0  0  0
 18 20  1  0  0  0  0
 18 39  1  0  0  0  0
 19 23  1  0  0  0  0
 20 23  2  0  0  0  0
 21 25  1  0  0  0  0
 21 40  1  0  0  0  0
 22 26  2  0  0  0  0
 22 41  1  0  0  0  0
 24 28  2  0  0  0  0
 24 42  1  0  0  0  0
 25 27  2  0  0  0  0
 25 43  1  0  0  0  0
 26 27  1  0  0  0  0
 26 44  1  0  0  0  0
 28 47  1  0  0  0  0
 28 48  1  0  0  0  0
 29 50  1  0  0  0  0
 29 51  1  0  0  0  0
 29 52  1  0  0  0  0
M  END
> <PUBCHEM_COMPOUND_CID>
13720687

> <PUBCHEM_COMPOUND_CANONICALIZED>
1

> <PUBCHEM_CACTVS_COMPLEXITY>
519

> <PUBCHEM_CACTVS_HBOND_ACCEPTOR>
7

> <PUBCHEM_CACTVS_HBOND_DONOR>
4

> <PUBCHEM_CACTVS_ROTATABLE_BOND>
3

> <PUBCHEM_CACTVS_SUBSKEYS>
AAADceB6OABAEAAAAAAAAAAAAAAAAAAAAAAwYAAABYAAAAABQAAAHgRACAABrQTBmASyBoMAAoKAAiBCAHCCAAAgIAQIiAAOiKgJJiKCkROEcAEkwBGJmheQ0PIOoAABEIAQxABAAAIhACGIAAAAAAAAAA==

> <PUBCHEM_IUPAC_OPENEYE_NAME>
3-allyl-9-bromo-5-(4-hydroxyphenyl)-1,2,4,5-tetrahydro-3-benzazepine-7,8-diol;methanesulfonic acid

> <PUBCHEM_IUPAC_CAS_NAME>
9-bromo-5-(4-hydroxyphenyl)-3-prop-2-enyl-1,2,4,5-tetrahydro-3-benzazepine-7,8-diol;methanesulfonic acid

> <PUBCHEM_IUPAC_NAME_MARKUP>
9-bromo-5-(4-hydroxyphenyl)-3-prop-2-enyl-1,2,4,5-tetrahydro-3-benzazepine-7,8-diol;methanesulfonic acid

> <PUBCHEM_IUPAC_NAME>
9-bromo-5-(4-hydroxyphenyl)-3-prop-2-enyl-1,2,4,5-tetrahydro-3-benzazepine-7,8-diol;methanesulfonic acid

> <PUBCHEM_IUPAC_SYSTEMATIC_NAME>
9-bromanyl-5-(4-hydroxyphenyl)-3-prop-2-enyl-1,2,4,5-tetrahydro-3-benzazepine-7,8-diol;methanesulfonic acid

> <PUBCHEM_IUPAC_TRADITIONAL_NAME>
3-allyl-9-bromo-5-(4-hydroxyphenyl)-1,2,4,5-tetrahydro-3-benzazepine-7,8-diol;mesylic acid

> <PUBCHEM_IUPAC_INCHI>
InChI=1S/C19H20BrNO3.CH4O3S/c1-2-8-21-9-7-14-15(10-17(23)19(24)18(14)20)16(11-21)12-3-5-13(22)6-4-12;1-5(2,3)4/h2-6,10,16,22-24H,1,7-9,11H2;1H3,(H,2,3,4)

> <PUBCHEM_IUPAC_INCHIKEY>
LZUHKFHHJRXFNF-UHFFFAOYSA-N

> <PUBCHEM_EXACT_MASS>
485.05077

> <PUBCHEM_MOLECULAR_FORMULA>
C20H24BrNO6S

> <PUBCHEM_MOLECULAR_WEIGHT>
486.4

> <PUBCHEM_OPENEYE_CAN_SMILES>
CS(=O)(=O)O.C=CCN1CCC2=C(C(=C(C=C2C(C1)C3=CC=C(C=C3)O)O)O)Br

> <PUBCHEM_OPENEYE_ISO_SMILES>
CS(=O)(=O)O.C=CCN1CCC2=C(C(=C(C=C2C(C1)C3=CC=C(C=C3)O)O)O)Br

> <PUBCHEM_CACTVS_TPSA>
127

> <PUBCHEM_MONOISOTOPIC_WEIGHT>
485.05077

> <PUBCHEM_TOTAL_CHARGE>
0

> <PUBCHEM_HEAVY_ATOM_COUNT>
29

> <PUBCHEM_ATOM_DEF_STEREO_COUNT>
0

> <PUBCHEM_ATOM_UDEF_STEREO_COUNT>
1

> <PUBCHEM_BOND_DEF_STEREO_COUNT>
0

> <PUBCHEM_BOND_UDEF_STEREO_COUNT>
0

> <PUBCHEM_ISOTOPIC_ATOM_COUNT>
0

> <PUBCHEM_COMPONENT_COUNT>
2

> <PUBCHEM_CACTVS_TAUTO_COUNT>
-1

> <PUBCHEM_COORDINATE_TYPE>
1
5
255

> <PUBCHEM_BONDANNOTATIONS>
10  16  3
12  15  8
12  18  8
15  19  8
16  21  8
16  22  8
18  20  8
19  23  8
20  23  8
21  25  8
22  26  8
25  27  8
26  27  8

$$$$
