44324800
  -OEChem-09292322102D

 67 71  0     1  0  0  0  0  0999 V2000
    8.5301    1.2613    0.0000 O   0  0  0  0  0  0  0  0  0  0  0  0
   11.7920    0.7613    0.0000 O   0  0  0  0  0  0  0  0  0  0  0  0
   11.8041    4.8305    0.0000 O   0  0  0  0  0  0  0  0  0  0  0  0
   13.5779    3.8064    0.0000 O   0  0  0  0  0  0  0  0  0  0  0  0
    7.8245   -0.7002    0.0000 N   0  0  0  0  0  0  0  0  0  0  0  0
    5.8675   -1.1126    0.0000 N   0  0  0  0  0  0  0  0  0  0  0  0
    9.1137    2.0660    0.0000 N   0  0  0  0  0  0  0  0  0  0  0  0
    9.1137    0.4565    0.0000 C   0  0  2  0  0  0  0  0  0  0  0  0
   10.0599    0.7613    0.0000 C   0  0  1  0  0  0  0  0  0  0  0  0
    8.8030   -0.4940    0.0000 C   0  0  0  0  0  0  0  0  0  0  0  0
    7.1567    0.0441    0.0000 C   0  0  0  0  0  0  0  0  0  0  0  0
    7.5138   -1.6507    0.0000 C   0  0  0  0  0  0  0  0  0  0  0  0
    6.1782   -0.1621    0.0000 C   0  0  0  0  0  0  0  0  0  0  0  0
    6.5354   -1.8570    0.0000 C   0  0  0  0  0  0  0  0  0  0  0  0
   10.0599    1.7613    0.0000 C   0  0  0  0  0  0  0  0  0  0  0  0
   10.9259    0.2613    0.0000 C   0  0  0  0  0  0  0  0  0  0  0  0
   10.9259    2.2613    0.0000 C   0  0  0  0  0  0  0  0  0  0  0  0
    4.8890   -1.3189    0.0000 C   0  0  0  0  0  0  0  0  0  0  0  0
   11.7920    1.7613    0.0000 C   0  0  0  0  0  0  0  0  0  0  0  0
   10.9099    3.3028    0.0000 C   0  0  0  0  0  0  0  0  0  0  0  0
    4.5783   -2.2694    0.0000 C   0  0  0  0  0  0  0  0  0  0  0  0
   12.7020    2.2681    0.0000 C   0  0  0  0  0  0  0  0  0  0  0  0
   11.8079    3.8305    0.0000 C   0  0  0  0  0  0  0  0  0  0  0  0
   12.7100    3.3097    0.0000 C   0  0  0  0  0  0  0  0  0  0  0  0
    5.2462   -3.0137    0.0000 C   0  0  0  0  0  0  0  0  0  0  0  0
    3.5998   -2.4756    0.0000 C   0  0  0  0  0  0  0  0  0  0  0  0
    3.2892   -3.4261    0.0000 C   0  0  0  0  0  0  0  0  0  0  0  0
   10.9361    5.3272    0.0000 C   0  0  0  0  0  0  0  0  0  0  0  0
    2.3107   -3.6324    0.0000 C   0  0  0  0  0  0  0  0  0  0  0  0
    3.9570   -4.1704    0.0000 C   0  0  0  0  0  0  0  0  0  0  0  0
   14.4420    3.3030    0.0000 C   0  0  0  0  0  0  0  0  0  0  0  0
    2.0000   -4.5829    0.0000 C   0  0  0  0  0  0  0  0  0  0  0  0
    3.6464   -5.1210    0.0000 C   0  0  0  0  0  0  0  0  0  0  0  0
    2.6678   -5.3272    0.0000 C   0  0  0  0  0  0  0  0  0  0  0  0
    8.5012    0.3603    0.0000 H   0  0  0  0  0  0  0  0  0  0  0  0
    9.9700   -0.0840    0.0000 H   0  0  0  0  0  0  0  0  0  0  0  0
    8.8236   -1.1136    0.0000 H   0  0  0  0  0  0  0  0  0  0  0  0
    9.4168   -0.5813    0.0000 H   0  0  0  0  0  0  0  0  0  0  0  0
    7.6830    0.3717    0.0000 H   0  0  0  0  0  0  0  0  0  0  0  0
    6.9254    0.6193    0.0000 H   0  0  0  0  0  0  0  0  0  0  0  0
    7.5344   -2.2704    0.0000 H   0  0  0  0  0  0  0  0  0  0  0  0
    8.1277   -1.7381    0.0000 H   0  0  0  0  0  0  0  0  0  0  0  0
    6.1576    0.4575    0.0000 H   0  0  0  0  0  0  0  0  0  0  0  0
    5.5644   -0.0748    0.0000 H   0  0  0  0  0  0  0  0  0  0  0  0
    6.0090   -2.1846    0.0000 H   0  0  0  0  0  0  0  0  0  0  0  0
    6.7666   -2.4322    0.0000 H   0  0  0  0  0  0  0  0  0  0  0  0
   10.5274   -0.2137    0.0000 H   0  0  0  0  0  0  0  0  0  0  0  0
   11.3245   -0.2137    0.0000 H   0  0  0  0  0  0  0  0  0  0  0  0
    4.8684   -0.6992    0.0000 H   0  0  0  0  0  0  0  0  0  0  0  0
    4.2752   -1.2315    0.0000 H   0  0  0  0  0  0  0  0  0  0  0  0
   10.3694    3.6065    0.0000 H   0  0  0  0  0  0  0  0  0  0  0  0
   13.2353    1.9519    0.0000 H   0  0  0  0  0  0  0  0  0  0  0  0
    4.7847   -3.4278    0.0000 H   0  0  0  0  0  0  0  0  0  0  0  0
    5.6602   -3.4752    0.0000 H   0  0  0  0  0  0  0  0  0  0  0  0
    5.7076   -2.5996    0.0000 H   0  0  0  0  0  0  0  0  0  0  0  0
    3.1858   -2.0141    0.0000 H   0  0  0  0  0  0  0  0  0  0  0  0
   11.2440    5.8653    0.0000 H   0  0  0  0  0  0  0  0  0  0  0  0
   10.3980    5.6351    0.0000 H   0  0  0  0  0  0  0  0  0  0  0  0
   10.6282    4.7890    0.0000 H   0  0  0  0  0  0  0  0  0  0  0  0
    1.8966   -3.1709    0.0000 H   0  0  0  0  0  0  0  0  0  0  0  0
    4.5637   -4.0426    0.0000 H   0  0  0  0  0  0  0  0  0  0  0  0
   14.1300    2.7673    0.0000 H   0  0  0  0  0  0  0  0  0  0  0  0
   14.9778    2.9910    0.0000 H   0  0  0  0  0  0  0  0  0  0  0  0
   14.7541    3.8388    0.0000 H   0  0  0  0  0  0  0  0  0  0  0  0
    1.3933   -4.7107    0.0000 H   0  0  0  0  0  0  0  0  0  0  0  0
    4.0604   -5.5824    0.0000 H   0  0  0  0  0  0  0  0  0  0  0  0
    2.4752   -5.9165    0.0000 H   0  0  0  0  0  0  0  0  0  0  0  0
  1  7  1  0  0  0  0
  1  8  1  0  0  0  0
  2 16  1  0  0  0  0
  2 19  1  0  0  0  0
  3 23  1  0  0  0  0
  3 28  1  0  0  0  0
  4 24  1  0  0  0  0
  4 31  1  0  0  0  0
  5 10  1  0  0  0  0
  5 11  1  0  0  0  0
  5 12  1  0  0  0  0
  6 13  1  0  0  0  0
  6 14  1  0  0  0  0
  6 18  1  0  0  0  0
  7 15  2  0  0  0  0
  8  9  1  0  0  0  0
  8 10  1  6  0  0  0
  8 35  1  0  0  0  0
  9 15  1  0  0  0  0
  9 16  1  0  0  0  0
  9 36  1  6  0  0  0
 10 37  1  0  0  0  0
 10 38  1  0  0  0  0
 11 13  1  0  0  0  0
 11 39  1  0  0  0  0
 11 40  1  0  0  0  0
 12 14  1  0  0  0  0
 12 41  1  0  0  0  0
 12 42  1  0  0  0  0
 13 43  1  0  0  0  0
 13 44  1  0  0  0  0
 14 45  1  0  0  0  0
 14 46  1  0  0  0  0
 15 17  1  0  0  0  0
 16 47  1  0  0  0  0
 16 48  1  0  0  0  0
 17 19  1  0  0  0  0
 17 20  2  0  0  0  0
 18 21  1  0  0  0  0
 18 49  1  0  0  0  0
 18 50  1  0  0  0  0
 19 22  2  0  0  0  0
 20 23  1  0  0  0  0
 20 51  1  0  0  0  0
 21 25  1  0  0  0  0
 21 26  2  0  0  0  0
 22 24  1  0  0  0  0
 22 52  1  0  0  0  0
 23 24  2  0  0  0  0
 25 53  1  0  0  0  0
 25 54  1  0  0  0  0
 25 55  1  0  0  0  0
 26 27  1  0  0  0  0
 26 56  1  0  0  0  0
 27 29  2  0  0  0  0
 27 30  1  0  0  0  0
 28 57  1  0  0  0  0
 28 58  1  0  0  0  0
 28 59  1  0  0  0  0
 29 32  1  0  0  0  0
 29 60  1  0  0  0  0
 30 33  2  0  0  0  0
 30 61  1  0  0  0  0
 31 62  1  0  0  0  0
 31 63  1  0  0  0  0
 31 64  1  0  0  0  0
 32 34  2  0  0  0  0
 32 65  1  0  0  0  0
 33 34  1  0  0  0  0
 33 66  1  0  0  0  0
 34 67  1  0  0  0  0
M  END
> <PUBCHEM_COMPOUND_CID>
44324800

> <PUBCHEM_COMPOUND_CANONICALIZED>
1

> <PUBCHEM_CACTVS_COMPLEXITY>
729

> <PUBCHEM_CACTVS_HBOND_ACCEPTOR>
7

> <PUBCHEM_CACTVS_HBOND_DONOR>
0

> <PUBCHEM_CACTVS_ROTATABLE_BOND>
7

> <PUBCHEM_CACTVS_SUBSKEYS>
AAADcfB7OAAAAAAAAAAAAAAAAAAAAQAAAAA8aIEAAAAAAECRQAAAHgAEAAAADRzhmAYyBoMQBACgAyBiAACCCAAgIAAIiAA+iJgPZ6KEsRqWOCKlwBWaqAfw4PwOIQABCAAIQABCAAIQABCAAAAAAAAAAA==

> <PUBCHEM_IUPAC_OPENEYE_NAME>
(3R,3aS)-7,8-dimethoxy-3-[[4-[(E)-2-methyl-3-phenyl-allyl]piperazin-1-yl]methyl]-3a,4-dihydro-3H-chromeno[4,3-c]isoxazole

> <PUBCHEM_IUPAC_CAS_NAME>
(3R,3aS)-7,8-dimethoxy-3-[[4-[(E)-2-methyl-3-phenylprop-2-enyl]-1-piperazinyl]methyl]-3a,4-dihydro-3H-[1]benzopyrano[4,3-c]isoxazole

> <PUBCHEM_IUPAC_NAME_MARKUP>
(3<I>R</I>,3<I>a</I><I>S</I>)-7,8-dimethoxy-3-[[4-[(<I>E</I>)-2-methyl-3-phenylprop-2-enyl]piperazin-1-yl]methyl]-3<I>a</I>,4-dihydro-3<I>H</I>-chromeno[4,3-c][1,2]oxazole

> <PUBCHEM_IUPAC_NAME>
(3R,3aS)-7,8-dimethoxy-3-[[4-[(E)-2-methyl-3-phenylprop-2-enyl]piperazin-1-yl]methyl]-3a,4-dihydro-3H-chromeno[4,3-c][1,2]oxazole

> <PUBCHEM_IUPAC_SYSTEMATIC_NAME>
(3R,3aS)-7,8-dimethoxy-3-[[4-[(E)-2-methyl-3-phenyl-prop-2-enyl]piperazin-1-yl]methyl]-3a,4-dihydro-3H-chromeno[4,3-c][1,2]oxazole

> <PUBCHEM_IUPAC_TRADITIONAL_NAME>
(3R,3aS)-7,8-dimethoxy-3-[[4-[(E)-2-methyl-3-phenyl-allyl]piperazino]methyl]-3a,4-dihydro-3H-chromen[4,3-c]isoxazole

> <PUBCHEM_IUPAC_INCHI>
InChI=1S/C27H33N3O4/c1-19(13-20-7-5-4-6-8-20)16-29-9-11-30(12-10-29)17-26-22-18-33-23-15-25(32-3)24(31-2)14-21(23)27(22)28-34-26/h4-8,13-15,22,26H,9-12,16-18H2,1-3H3/b19-13+/t22-,26-/m0/s1

> <PUBCHEM_IUPAC_INCHIKEY>
JWYUBODPEUBFLH-FSTMKDAKSA-N

> <PUBCHEM_XLOGP3_AA>
4.2

> <PUBCHEM_EXACT_MASS>
463.24710654

> <PUBCHEM_MOLECULAR_FORMULA>
C27H33N3O4

> <PUBCHEM_MOLECULAR_WEIGHT>
463.6

> <PUBCHEM_OPENEYE_CAN_SMILES>
CC(=CC1=CC=CC=C1)CN2CCN(CC2)CC3C4COC5=CC(=C(C=C5C4=NO3)OC)OC

> <PUBCHEM_OPENEYE_ISO_SMILES>
C/C(=C\C1=CC=CC=C1)/CN2CCN(CC2)C[C@H]3[C@@H]4COC5=CC(=C(C=C5C4=NO3)OC)OC

> <PUBCHEM_CACTVS_TPSA>
55.8

> <PUBCHEM_MONOISOTOPIC_WEIGHT>
463.24710654

> <PUBCHEM_TOTAL_CHARGE>
0

> <PUBCHEM_HEAVY_ATOM_COUNT>
34

> <PUBCHEM_ATOM_DEF_STEREO_COUNT>
2

> <PUBCHEM_ATOM_UDEF_STEREO_COUNT>
0

> <PUBCHEM_BOND_DEF_STEREO_COUNT>
1

> <PUBCHEM_BOND_UDEF_STEREO_COUNT>
0

> <PUBCHEM_ISOTOPIC_ATOM_COUNT>
0

> <PUBCHEM_COMPONENT_COUNT>
1

> <PUBCHEM_CACTVS_TAUTO_COUNT>
-1

> <PUBCHEM_COORDINATE_TYPE>
1
5
255

> <PUBCHEM_BONDANNOTATIONS>
17  19  8
17  20  8
19  22  8
20  23  8
22  24  8
23  24  8
27  29  8
27  30  8
29  32  8
30  33  8
32  34  8
33  34  8
8  10  6
9  36  6

$$$$
