138671150
  -OEChem-09292322452D

 69 72  0     1  0  0  0  0  0999 V2000
   18.9313   -2.7904    0.0000 F   0  0  0  0  0  0  0  0  0  0  0  0
   20.2987   -2.4296    0.0000 F   0  0  0  0  0  0  0  0  0  0  0  0
   19.9380   -1.0622    0.0000 F   0  0  0  0  0  0  0  0  0  0  0  0
    7.3479    1.7026    0.0000 O   0  0  0  0  0  0  0  0  0  0  0  0
    5.3479    1.7026    0.0000 O   0  0  0  0  0  0  0  0  0  0  0  0
   17.7026   -1.9196    0.0000 O   0  0  0  0  0  0  0  0  0  0  0  0
    2.8090    1.2026    0.0000 O   0  0  0  0  0  0  0  0  0  0  0  0
   12.8479   -0.8955    0.0000 N   0  0  3  0  0  0  0  0  0  0  0  0
    7.3479   -0.0294    0.0000 N   0  0  0  0  0  0  0  0  0  0  0  0
   15.9324   -1.9301    0.0000 N   0  0  0  0  0  0  0  0  0  0  0  0
    3.7601    0.8936    0.0000 N   0  0  0  0  0  0  0  0  0  0  0  0
   10.3479   -0.0294    0.0000 C   0  0  0  0  0  0  0  0  0  0  0  0
    9.8479   -0.8955    0.0000 C   0  0  0  0  0  0  0  0  0  0  0  0
    9.8479    0.8366    0.0000 C   0  0  0  0  0  0  0  0  0  0  0  0
    8.3479   -0.0294    0.0000 C   0  0  0  0  0  0  0  0  0  0  0  0
    8.8479   -0.8955    0.0000 C   0  0  0  0  0  0  0  0  0  0  0  0
    8.8479    0.8366    0.0000 C   0  0  0  0  0  0  0  0  0  0  0  0
   11.3479   -0.0294    0.0000 C   0  0  0  0  0  0  0  0  0  0  0  0
   11.8479   -0.8955    0.0000 C   0  0  0  0  0  0  0  0  0  0  0  0
   13.2817    0.0055    0.0000 C   0  0  0  0  0  0  0  0  0  0  0  0
   13.2817   -1.7964    0.0000 C   0  0  0  0  0  0  0  0  0  0  0  0
   14.2567    0.2280    0.0000 C   0  0  0  0  0  0  0  0  0  0  0  0
   14.2567   -2.0190    0.0000 C   0  0  0  0  0  0  0  0  0  0  0  0
    6.8479    0.8366    0.0000 C   0  0  0  0  0  0  0  0  0  0  0  0
   15.0385   -0.3955    0.0000 C   0  0  0  0  0  0  0  0  0  0  0  0
   15.0385   -1.3955    0.0000 C   0  0  0  0  0  0  0  0  0  0  0  0
    5.8479    0.8366    0.0000 C   0  0  0  0  0  0  0  0  0  0  0  0
   15.9324    0.1392    0.0000 C   0  0  0  0  0  0  0  0  0  0  0  0
   16.8385   -0.3747    0.0000 C   0  0  0  0  0  0  0  0  0  0  0  0
   16.8385   -1.4163    0.0000 C   0  0  0  0  0  0  0  0  0  0  0  0
    4.3479    1.7026    0.0000 C   0  0  0  0  0  0  0  0  0  0  0  0
   18.5705   -1.4230    0.0000 C   0  0  0  0  0  0  0  0  0  0  0  0
    3.7601    2.5116    0.0000 C   0  0  0  0  0  0  0  0  0  0  0  0
   19.4346   -1.9263    0.0000 C   0  0  0  0  0  0  0  0  0  0  0  0
    2.8090    2.2026    0.0000 C   0  0  0  0  0  0  0  0  0  0  0  0
    2.0000    2.7904    0.0000 C   0  0  0  0  0  0  0  0  0  0  0  0
   10.6579   -0.5664    0.0000 H   0  0  0  0  0  0  0  0  0  0  0  0
    9.7402   -1.5061    0.0000 H   0  0  0  0  0  0  0  0  0  0  0  0
   10.4305   -1.1075    0.0000 H   0  0  0  0  0  0  0  0  0  0  0  0
   10.4305    1.0486    0.0000 H   0  0  0  0  0  0  0  0  0  0  0  0
    9.7402    1.4472    0.0000 H   0  0  0  0  0  0  0  0  0  0  0  0
    8.0379   -0.5664    0.0000 H   0  0  0  0  0  0  0  0  0  0  0  0
    8.2652   -1.1075    0.0000 H   0  0  0  0  0  0  0  0  0  0  0  0
    8.9555   -1.5061    0.0000 H   0  0  0  0  0  0  0  0  0  0  0  0
    8.9555    1.4472    0.0000 H   0  0  0  0  0  0  0  0  0  0  0  0
    8.2652    1.0486    0.0000 H   0  0  0  0  0  0  0  0  0  0  0  0
   11.9305    0.1826    0.0000 H   0  0  0  0  0  0  0  0  0  0  0  0
   11.2402    0.5811    0.0000 H   0  0  0  0  0  0  0  0  0  0  0  0
   11.2652   -1.1075    0.0000 H   0  0  0  0  0  0  0  0  0  0  0  0
   11.9555   -1.5061    0.0000 H   0  0  0  0  0  0  0  0  0  0  0  0
    7.0379   -0.5664    0.0000 H   0  0  0  0  0  0  0  0  0  0  0  0
   13.2817    0.6255    0.0000 H   0  0  0  0  0  0  0  0  0  0  0  0
   12.6773    0.1435    0.0000 H   0  0  0  0  0  0  0  0  0  0  0  0
   12.6773   -1.9344    0.0000 H   0  0  0  0  0  0  0  0  0  0  0  0
   13.2817   -2.4164    0.0000 H   0  0  0  0  0  0  0  0  0  0  0  0
   14.7414    0.6146    0.0000 H   0  0  0  0  0  0  0  0  0  0  0  0
   13.9877    0.7866    0.0000 H   0  0  0  0  0  0  0  0  0  0  0  0
   13.9877   -2.5776    0.0000 H   0  0  0  0  0  0  0  0  0  0  0  0
   14.7414   -2.4055    0.0000 H   0  0  0  0  0  0  0  0  0  0  0  0
    5.2652    0.6245    0.0000 H   0  0  0  0  0  0  0  0  0  0  0  0
    5.9555    0.2260    0.0000 H   0  0  0  0  0  0  0  0  0  0  0  0
   15.9253    0.7591    0.0000 H   0  0  0  0  0  0  0  0  0  0  0  0
   17.3742   -0.0626    0.0000 H   0  0  0  0  0  0  0  0  0  0  0  0
   18.9709   -0.9496    0.0000 H   0  0  0  0  0  0  0  0  0  0  0  0
   18.1739   -0.9465    0.0000 H   0  0  0  0  0  0  0  0  0  0  0  0
    3.9517    3.1013    0.0000 H   0  0  0  0  0  0  0  0  0  0  0  0
    2.3644    3.2920    0.0000 H   0  0  0  0  0  0  0  0  0  0  0  0
    1.4984    3.1548    0.0000 H   0  0  0  0  0  0  0  0  0  0  0  0
    1.6356    2.2888    0.0000 H   0  0  0  0  0  0  0  0  0  0  0  0
  1 34  1  0  0  0  0
  2 34  1  0  0  0  0
  3 34  1  0  0  0  0
  4 24  2  0  0  0  0
  5 27  1  0  0  0  0
  5 31  1  0  0  0  0
  6 30  1  0  0  0  0
  6 32  1  0  0  0  0
  7 11  1  0  0  0  0
  7 35  1  0  0  0  0
  8 19  1  0  0  0  0
  8 20  1  0  0  0  0
  8 21  1  0  0  0  0
  9 15  1  0  0  0  0
  9 24  1  0  0  0  0
  9 51  1  0  0  0  0
 10 26  1  0  0  0  0
 10 30  2  0  0  0  0
 11 31  2  0  0  0  0
 12 13  1  0  0  0  0
 12 14  1  0  0  0  0
 12 18  1  0  0  0  0
 12 37  1  0  0  0  0
 13 16  1  0  0  0  0
 13 38  1  0  0  0  0
 13 39  1  0  0  0  0
 14 17  1  0  0  0  0
 14 40  1  0  0  0  0
 14 41  1  0  0  0  0
 15 16  1  0  0  0  0
 15 17  1  0  0  0  0
 15 42  1  0  0  0  0
 16 43  1  0  0  0  0
 16 44  1  0  0  0  0
 17 45  1  0  0  0  0
 17 46  1  0  0  0  0
 18 19  1  0  0  0  0
 18 47  1  0  0  0  0
 18 48  1  0  0  0  0
 19 49  1  0  0  0  0
 19 50  1  0  0  0  0
 20 22  1  0  0  0  0
 20 52  1  0  0  0  0
 20 53  1  0  0  0  0
 21 23  1  0  0  0  0
 21 54  1  0  0  0  0
 21 55  1  0  0  0  0
 22 25  1  0  0  0  0
 22 56  1  0  0  0  0
 22 57  1  0  0  0  0
 23 26  1  0  0  0  0
 23 58  1  0  0  0  0
 23 59  1  0  0  0  0
 24 27  1  0  0  0  0
 25 26  2  0  0  0  0
 25 28  1  0  0  0  0
 27 60  1  0  0  0  0
 27 61  1  0  0  0  0
 28 29  2  0  0  0  0
 28 62  1  0  0  0  0
 29 30  1  0  0  0  0
 29 63  1  0  0  0  0
 31 33  1  0  0  0  0
 32 34  1  0  0  0  0
 32 64  1  0  0  0  0
 32 65  1  0  0  0  0
 33 35  2  0  0  0  0
 33 66  1  0  0  0  0
 35 36  1  0  0  0  0
 36 67  1  0  0  0  0
 36 68  1  0  0  0  0
 36 69  1  0  0  0  0
M  END
> <PUBCHEM_COMPOUND_CID>
138671150

> <PUBCHEM_COMPOUND_CANONICALIZED>
1

> <PUBCHEM_CACTVS_COMPLEXITY>
693

> <PUBCHEM_CACTVS_HBOND_ACCEPTOR>
10

> <PUBCHEM_CACTVS_HBOND_DONOR>
1

> <PUBCHEM_CACTVS_ROTATABLE_BOND>
9

> <PUBCHEM_CACTVS_SUBSKEYS>
AAADcfB7uYAAAAAAAAAAAAAAAAAAAWAAAAA8QAAABYAAAAAB4AAAHwAUAAAADSzhnhYyhJPYFACpA6VyVgKCiCAlIiAomKF+bNoOJ+7E8Z+POOjn9h3Y6EeQ0KEOAAAAAAAAAAAQAAAAAAAAAAAAAAAAAA==

> <PUBCHEM_IUPAC_OPENEYE_NAME>
2-(5-methylisoxazol-3-yl)oxy-N-[4-[2-[2-(2,2,2-trifluoroethoxy)-5,6,8,9-tetrahydropyrido[2,3-d]azepin-7-yl]ethyl]cyclohexyl]acetamide

> <PUBCHEM_IUPAC_CAS_NAME>
2-[(5-methyl-3-isoxazolyl)oxy]-N-[4-[2-[2-(2,2,2-trifluoroethoxy)-5,6,8,9-tetrahydropyrido[2,3-d]azepin-7-yl]ethyl]cyclohexyl]acetamide

> <PUBCHEM_IUPAC_NAME_MARKUP>
2-[(5-methyl-1,2-oxazol-3-yl)oxy]-<I>N</I>-[4-[2-[2-(2,2,2-trifluoroethoxy)-5,6,8,9-tetrahydropyrido[2,3-d]azepin-7-yl]ethyl]cyclohexyl]acetamide

> <PUBCHEM_IUPAC_NAME>
2-[(5-methyl-1,2-oxazol-3-yl)oxy]-N-[4-[2-[2-(2,2,2-trifluoroethoxy)-5,6,8,9-tetrahydropyrido[2,3-d]azepin-7-yl]ethyl]cyclohexyl]acetamide

> <PUBCHEM_IUPAC_SYSTEMATIC_NAME>
2-[(5-methyl-1,2-oxazol-3-yl)oxy]-N-[4-[2-[2-[2,2,2-tris(fluoranyl)ethoxy]-5,6,8,9-tetrahydropyrido[2,3-d]azepin-7-yl]ethyl]cyclohexyl]ethanamide

> <PUBCHEM_IUPAC_TRADITIONAL_NAME>
2-(5-methylisoxazol-3-yl)oxy-N-[4-[2-[2-(2,2,2-trifluoroethoxy)-5,6,8,9-tetrahydropyrid[2,3-d]azepin-7-yl]ethyl]cyclohexyl]acetamide

> <PUBCHEM_IUPAC_INCHI>
InChI=1S/C25H33F3N4O4/c1-17-14-24(31-36-17)34-15-22(33)29-20-5-2-18(3-6-20)8-11-32-12-9-19-4-7-23(30-21(19)10-13-32)35-16-25(26,27)28/h4,7,14,18,20H,2-3,5-6,8-13,15-16H2,1H3,(H,29,33)

> <PUBCHEM_IUPAC_INCHIKEY>
OFNJFDWFNZIXMI-UHFFFAOYSA-N

> <PUBCHEM_XLOGP3_AA>
4.7

> <PUBCHEM_EXACT_MASS>
510.24539003

> <PUBCHEM_MOLECULAR_FORMULA>
C25H33F3N4O4

> <PUBCHEM_MOLECULAR_WEIGHT>
510.5

> <PUBCHEM_OPENEYE_CAN_SMILES>
CC1=CC(=NO1)OCC(=O)NC2CCC(CC2)CCN3CCC4=C(CC3)N=C(C=C4)OCC(F)(F)F

> <PUBCHEM_OPENEYE_ISO_SMILES>
CC1=CC(=NO1)OCC(=O)NC2CCC(CC2)CCN3CCC4=C(CC3)N=C(C=C4)OCC(F)(F)F

> <PUBCHEM_CACTVS_TPSA>
89.7

> <PUBCHEM_MONOISOTOPIC_WEIGHT>
510.24539003

> <PUBCHEM_TOTAL_CHARGE>
0

> <PUBCHEM_HEAVY_ATOM_COUNT>
36

> <PUBCHEM_ATOM_DEF_STEREO_COUNT>
0

> <PUBCHEM_ATOM_UDEF_STEREO_COUNT>
0

> <PUBCHEM_BOND_DEF_STEREO_COUNT>
0

> <PUBCHEM_BOND_UDEF_STEREO_COUNT>
0

> <PUBCHEM_ISOTOPIC_ATOM_COUNT>
0

> <PUBCHEM_COMPONENT_COUNT>
1

> <PUBCHEM_CACTVS_TAUTO_COUNT>
-1

> <PUBCHEM_COORDINATE_TYPE>
1
5
255

> <PUBCHEM_BONDANNOTATIONS>
10  26  8
10  30  8
11  31  8
25  26  8
25  28  8
28  29  8
29  30  8
31  33  8
33  35  8
7  11  8
7  35  8

$$$$
