164621388
  -OEChem-09292322432D

 48 51  0     1  0  0  0  0  0999 V2000
    2.0000    1.3660    0.0000 Cl  0  0  0  0  0  0  0  0  0  0  0  0
    8.6279   -0.5000    0.0000 N   0  0  0  0  0  0  0  0  0  0  0  0
   10.6279   -0.5000    0.0000 N   0  0  0  0  0  0  0  0  0  0  0  0
   12.1279    0.3660    0.0000 N   0  0  0  0  0  0  0  0  0  0  0  0
    6.1279    0.3660    0.0000 C   0  0  3  0  0  0  0  0  0  0  0  0
    7.1279    0.3660    0.0000 C   0  0  0  0  0  0  0  0  0  0  0  0
    5.5443    1.1708    0.0000 C   0  0  0  0  0  0  0  0  0  0  0  0
    5.5443   -0.4387    0.0000 C   0  0  0  0  0  0  0  0  0  0  0  0
    7.6279   -0.5000    0.0000 C   0  0  0  0  0  0  0  0  0  0  0  0
    4.5981    0.8660    0.0000 C   0  0  0  0  0  0  0  0  0  0  0  0
    4.5981   -0.1340    0.0000 C   0  0  0  0  0  0  0  0  0  0  0  0
    9.1279   -1.3660    0.0000 C   0  0  0  0  0  0  0  0  0  0  0  0
    9.1279    0.3660    0.0000 C   0  0  0  0  0  0  0  0  0  0  0  0
   10.1279   -1.3660    0.0000 C   0  0  0  0  0  0  0  0  0  0  0  0
   10.1279    0.3660    0.0000 C   0  0  0  0  0  0  0  0  0  0  0  0
    3.7320    1.3660    0.0000 C   0  0  0  0  0  0  0  0  0  0  0  0
    3.7320   -0.6340    0.0000 C   0  0  0  0  0  0  0  0  0  0  0  0
   11.6279   -0.5000    0.0000 C   0  0  0  0  0  0  0  0  0  0  0  0
    2.8660    0.8660    0.0000 C   0  0  0  0  0  0  0  0  0  0  0  0
    2.8660   -0.1340    0.0000 C   0  0  0  0  0  0  0  0  0  0  0  0
   12.1279   -1.3660    0.0000 C   0  0  0  0  0  0  0  0  0  0  0  0
   13.1279   -1.3660    0.0000 C   0  0  0  0  0  0  0  0  0  0  0  0
   13.1279    0.3660    0.0000 C   0  0  0  0  0  0  0  0  0  0  0  0
   13.6279   -0.5000    0.0000 C   0  0  0  0  0  0  0  0  0  0  0  0
    6.4096   -0.1863    0.0000 H   0  0  0  0  0  0  0  0  0  0  0  0
    7.7105    0.5781    0.0000 H   0  0  0  0  0  0  0  0  0  0  0  0
    7.0202    0.9766    0.0000 H   0  0  0  0  0  0  0  0  0  0  0  0
    6.0817    1.4800    0.0000 H   0  0  0  0  0  0  0  0  0  0  0  0
    5.2933    1.7377    0.0000 H   0  0  0  0  0  0  0  0  0  0  0  0
    5.2933   -1.0056    0.0000 H   0  0  0  0  0  0  0  0  0  0  0  0
    6.0817   -0.7479    0.0000 H   0  0  0  0  0  0  0  0  0  0  0  0
    7.0453   -0.7121    0.0000 H   0  0  0  0  0  0  0  0  0  0  0  0
    7.7356   -1.1106    0.0000 H   0  0  0  0  0  0  0  0  0  0  0  0
    8.5453   -1.5781    0.0000 H   0  0  0  0  0  0  0  0  0  0  0  0
    9.2356   -1.9766    0.0000 H   0  0  0  0  0  0  0  0  0  0  0  0
    9.2356    0.9766    0.0000 H   0  0  0  0  0  0  0  0  0  0  0  0
    8.5453    0.5781    0.0000 H   0  0  0  0  0  0  0  0  0  0  0  0
   10.0202   -1.9766    0.0000 H   0  0  0  0  0  0  0  0  0  0  0  0
   10.7105   -1.5781    0.0000 H   0  0  0  0  0  0  0  0  0  0  0  0
   10.7105    0.5781    0.0000 H   0  0  0  0  0  0  0  0  0  0  0  0
   10.0202    0.9766    0.0000 H   0  0  0  0  0  0  0  0  0  0  0  0
    3.7320    1.9860    0.0000 H   0  0  0  0  0  0  0  0  0  0  0  0
    3.7320   -1.2540    0.0000 H   0  0  0  0  0  0  0  0  0  0  0  0
    2.3291   -0.4440    0.0000 H   0  0  0  0  0  0  0  0  0  0  0  0
   11.8179   -1.9030    0.0000 H   0  0  0  0  0  0  0  0  0  0  0  0
   13.4379   -1.9030    0.0000 H   0  0  0  0  0  0  0  0  0  0  0  0
   13.4379    0.9030    0.0000 H   0  0  0  0  0  0  0  0  0  0  0  0
   14.2479   -0.5000    0.0000 H   0  0  0  0  0  0  0  0  0  0  0  0
  1 19  1  0  0  0  0
  2  9  1  0  0  0  0
  2 12  1  0  0  0  0
  2 13  1  0  0  0  0
  3 14  1  0  0  0  0
  3 15  1  0  0  0  0
  3 18  1  0  0  0  0
  4 18  1  0  0  0  0
  4 23  2  0  0  0  0
  5  6  1  0  0  0  0
  5  7  1  0  0  0  0
  5  8  1  0  0  0  0
  5 25  1  0  0  0  0
  6  9  1  0  0  0  0
  6 26  1  0  0  0  0
  6 27  1  0  0  0  0
  7 10  1  0  0  0  0
  7 28  1  0  0  0  0
  7 29  1  0  0  0  0
  8 11  1  0  0  0  0
  8 30  1  0  0  0  0
  8 31  1  0  0  0  0
  9 32  1  0  0  0  0
  9 33  1  0  0  0  0
 10 11  2  0  0  0  0
 10 16  1  0  0  0  0
 11 17  1  0  0  0  0
 12 14  1  0  0  0  0
 12 34  1  0  0  0  0
 12 35  1  0  0  0  0
 13 15  1  0  0  0  0
 13 36  1  0  0  0  0
 13 37  1  0  0  0  0
 14 38  1  0  0  0  0
 14 39  1  0  0  0  0
 15 40  1  0  0  0  0
 15 41  1  0  0  0  0
 16 19  2  0  0  0  0
 16 42  1  0  0  0  0
 17 20  2  0  0  0  0
 17 43  1  0  0  0  0
 18 21  2  0  0  0  0
 19 20  1  0  0  0  0
 20 44  1  0  0  0  0
 21 22  1  0  0  0  0
 21 45  1  0  0  0  0
 22 24  2  0  0  0  0
 22 46  1  0  0  0  0
 23 24  1  0  0  0  0
 23 47  1  0  0  0  0
 24 48  1  0  0  0  0
M  END
> <PUBCHEM_COMPOUND_CID>
164621388

> <PUBCHEM_COMPOUND_CANONICALIZED>
1

> <PUBCHEM_CACTVS_COMPLEXITY>
396

> <PUBCHEM_CACTVS_HBOND_ACCEPTOR>
3

> <PUBCHEM_CACTVS_HBOND_DONOR>
0

> <PUBCHEM_CACTVS_ROTATABLE_BOND>
4

> <PUBCHEM_CACTVS_SUBSKEYS>
AAADceB7AAAEAAAAAAAAAAAAAAAAAYAAAAA8WIAAAAAAAGABwAAAHAIAAAAADQLBGiQ9sJMIEACgAjJnZACCgCkxByAJ2CA4ZpiIYOLBm5GUIAhogALIyCcQgMAOhAAAIAAQAAAIAABAACAAAQAACAAAAA==

> <PUBCHEM_IUPAC_OPENEYE_NAME>
1-[2-(5-chloroindan-2-yl)ethyl]-4-(2-pyridyl)piperazine

> <PUBCHEM_IUPAC_CAS_NAME>
1-[2-(5-chloro-2,3-dihydro-1H-inden-2-yl)ethyl]-4-(2-pyridinyl)piperazine

> <PUBCHEM_IUPAC_NAME_MARKUP>
1-[2-(5-chloro-2,3-dihydro-1<I>H</I>-inden-2-yl)ethyl]-4-pyridin-2-ylpiperazine

> <PUBCHEM_IUPAC_NAME>
1-[2-(5-chloro-2,3-dihydro-1H-inden-2-yl)ethyl]-4-pyridin-2-ylpiperazine

> <PUBCHEM_IUPAC_SYSTEMATIC_NAME>
1-[2-(5-chloranyl-2,3-dihydro-1H-inden-2-yl)ethyl]-4-pyridin-2-yl-piperazine

> <PUBCHEM_IUPAC_TRADITIONAL_NAME>
1-[2-(5-chloroindan-2-yl)ethyl]-4-(2-pyridyl)piperazine

> <PUBCHEM_IUPAC_INCHI>
InChI=1S/C20H24ClN3/c21-19-5-4-17-13-16(14-18(17)15-19)6-8-23-9-11-24(12-10-23)20-3-1-2-7-22-20/h1-5,7,15-16H,6,8-14H2

> <PUBCHEM_IUPAC_INCHIKEY>
HVROSOVHMGPEMN-UHFFFAOYSA-N

> <PUBCHEM_XLOGP3_AA>
4.4

> <PUBCHEM_EXACT_MASS>
341.1658755

> <PUBCHEM_MOLECULAR_FORMULA>
C20H24ClN3

> <PUBCHEM_MOLECULAR_WEIGHT>
341.9

> <PUBCHEM_OPENEYE_CAN_SMILES>
C1CN(CCN1CCC2CC3=C(C2)C=C(C=C3)Cl)C4=CC=CC=N4

> <PUBCHEM_OPENEYE_ISO_SMILES>
C1CN(CCN1CCC2CC3=C(C2)C=C(C=C3)Cl)C4=CC=CC=N4

> <PUBCHEM_CACTVS_TPSA>
19.4

> <PUBCHEM_MONOISOTOPIC_WEIGHT>
341.1658755

> <PUBCHEM_TOTAL_CHARGE>
0

> <PUBCHEM_HEAVY_ATOM_COUNT>
24

> <PUBCHEM_ATOM_DEF_STEREO_COUNT>
0

> <PUBCHEM_ATOM_UDEF_STEREO_COUNT>
1

> <PUBCHEM_BOND_DEF_STEREO_COUNT>
0

> <PUBCHEM_BOND_UDEF_STEREO_COUNT>
0

> <PUBCHEM_ISOTOPIC_ATOM_COUNT>
0

> <PUBCHEM_COMPONENT_COUNT>
1

> <PUBCHEM_CACTVS_TAUTO_COUNT>
-1

> <PUBCHEM_COORDINATE_TYPE>
1
5
255

> <PUBCHEM_BONDANNOTATIONS>
10  11  8
10  16  8
11  17  8
16  19  8
17  20  8
18  21  8
19  20  8
21  22  8
22  24  8
23  24  8
4  18  8
4  23  8
5  6  3

$$$$
