44415638
  -OEChem-09292322482D

 57 61  0     0  0  0  0  0  0999 V2000
    8.7204    1.6797    0.0000 Cl  0  0  0  0  0  0  0  0  0  0  0  0
    6.6150   -0.6473    0.0000 O   0  0  0  0  0  0  0  0  0  0  0  0
    3.9491    3.4444    0.0000 N   0  0  0  0  0  0  0  0  0  0  0  0
    3.0814    5.2463    0.0000 N   0  0  0  0  0  0  0  0  0  0  0  0
    4.8830    0.3527    0.0000 N   0  0  0  0  0  0  0  0  0  0  0  0
    5.3830    2.5434    0.0000 N   0  0  0  0  0  0  0  0  0  0  0  0
    4.8830   -0.6473    0.0000 N   0  0  0  0  0  0  0  0  0  0  0  0
    5.7490   -6.1473    0.0000 N   0  0  0  0  0  0  0  0  0  0  0  0
    2.9519    3.5191    0.0000 C   0  0  0  0  0  0  0  0  0  0  0  0
    4.5125    4.2706    0.0000 C   0  0  0  0  0  0  0  0  0  0  0  0
    2.5180    4.4201    0.0000 C   0  0  0  0  0  0  0  0  0  0  0  0
    4.0786    5.1716    0.0000 C   0  0  0  0  0  0  0  0  0  0  0  0
    4.3830    2.5434    0.0000 C   0  0  0  0  0  0  0  0  0  0  0  0
    3.7595    1.7616    0.0000 C   0  0  0  0  0  0  0  0  0  0  0  0
    2.6475    6.1473    0.0000 C   0  0  0  0  0  0  0  0  0  0  0  0
    3.9820    0.7866    0.0000 C   0  0  0  0  0  0  0  0  0  0  0  0
    5.7840    0.7866    0.0000 C   0  0  0  0  0  0  0  0  0  0  0  0
    6.0065    1.7615    0.0000 C   0  0  0  0  0  0  0  0  0  0  0  0
    2.7690    2.0839    0.0000 C   0  0  0  0  0  0  0  0  0  0  0  0
    3.2295    0.0665    0.0000 C   0  0  0  0  0  0  0  0  0  0  0  0
    2.0000    1.3813    0.0000 C   0  0  0  0  0  0  0  0  0  0  0  0
    6.5365    0.0664    0.0000 C   0  0  0  0  0  0  0  0  0  0  0  0
    6.9970    2.0839    0.0000 C   0  0  0  0  0  0  0  0  0  0  0  0
    2.2318    0.3658    0.0000 C   0  0  0  0  0  0  0  0  0  0  0  0
    7.5342    0.3658    0.0000 C   0  0  0  0  0  0  0  0  0  0  0  0
    7.7660    1.3813    0.0000 C   0  0  0  0  0  0  0  0  0  0  0  0
    5.7490   -1.1473    0.0000 C   0  0  0  0  0  0  0  0  0  0  0  0
    5.7490   -2.1473    0.0000 C   0  0  0  0  0  0  0  0  0  0  0  0
    4.8830   -2.6473    0.0000 C   0  0  0  0  0  0  0  0  0  0  0  0
    6.6150   -2.6473    0.0000 C   0  0  0  0  0  0  0  0  0  0  0  0
    4.8830   -3.6473    0.0000 C   0  0  0  0  0  0  0  0  0  0  0  0
    6.6150   -3.6473    0.0000 C   0  0  0  0  0  0  0  0  0  0  0  0
    5.7490   -4.1473    0.0000 C   0  0  0  0  0  0  0  0  0  0  0  0
    5.7490   -5.1473    0.0000 C   0  0  0  0  0  0  0  0  0  0  0  0
    2.3551    3.3512    0.0000 H   0  0  0  0  0  0  0  0  0  0  0  0
    3.0137    2.9022    0.0000 H   0  0  0  0  0  0  0  0  0  0  0  0
    4.9563    3.8377    0.0000 H   0  0  0  0  0  0  0  0  0  0  0  0
    5.0159    4.6325    0.0000 H   0  0  0  0  0  0  0  0  0  0  0  0
    2.0742    4.8530    0.0000 H   0  0  0  0  0  0  0  0  0  0  0  0
    2.0146    4.0582    0.0000 H   0  0  0  0  0  0  0  0  0  0  0  0
    4.6754    5.3395    0.0000 H   0  0  0  0  0  0  0  0  0  0  0  0
    4.0168    5.7885    0.0000 H   0  0  0  0  0  0  0  0  0  0  0  0
    3.2061    6.4163    0.0000 H   0  0  0  0  0  0  0  0  0  0  0  0
    2.3785    6.7059    0.0000 H   0  0  0  0  0  0  0  0  0  0  0  0
    2.0889    5.8783    0.0000 H   0  0  0  0  0  0  0  0  0  0  0  0
    2.6380    2.6899    0.0000 H   0  0  0  0  0  0  0  0  0  0  0  0
    3.3744   -0.5364    0.0000 H   0  0  0  0  0  0  0  0  0  0  0  0
    1.4083    1.5664    0.0000 H   0  0  0  0  0  0  0  0  0  0  0  0
    6.3916   -0.5364    0.0000 H   0  0  0  0  0  0  0  0  0  0  0  0
    4.3460   -0.9573    0.0000 H   0  0  0  0  0  0  0  0  0  0  0  0
    7.1280    2.6899    0.0000 H   0  0  0  0  0  0  0  0  0  0  0  0
    1.7789   -0.0576    0.0000 H   0  0  0  0  0  0  0  0  0  0  0  0
    7.9871   -0.0577    0.0000 H   0  0  0  0  0  0  0  0  0  0  0  0
    4.3460   -2.3373    0.0000 H   0  0  0  0  0  0  0  0  0  0  0  0
    7.1520   -2.3373    0.0000 H   0  0  0  0  0  0  0  0  0  0  0  0
    4.3460   -3.9573    0.0000 H   0  0  0  0  0  0  0  0  0  0  0  0
    7.1520   -3.9573    0.0000 H   0  0  0  0  0  0  0  0  0  0  0  0
  1 26  1  0  0  0  0
  2 27  2  0  0  0  0
  3  9  1  0  0  0  0
  3 10  1  0  0  0  0
  3 13  1  0  0  0  0
  4 11  1  0  0  0  0
  4 12  1  0  0  0  0
  4 15  1  0  0  0  0
  5  7  1  0  0  0  0
  5 16  1  0  0  0  0
  5 17  1  0  0  0  0
  6 13  2  0  0  0  0
  6 18  1  0  0  0  0
  7 27  1  0  0  0  0
  7 50  1  0  0  0  0
  8 34  3  0  0  0  0
  9 11  1  0  0  0  0
  9 35  1  0  0  0  0
  9 36  1  0  0  0  0
 10 12  1  0  0  0  0
 10 37  1  0  0  0  0
 10 38  1  0  0  0  0
 11 39  1  0  0  0  0
 11 40  1  0  0  0  0
 12 41  1  0  0  0  0
 12 42  1  0  0  0  0
 13 14  1  0  0  0  0
 14 16  1  0  0  0  0
 14 19  2  0  0  0  0
 15 43  1  0  0  0  0
 15 44  1  0  0  0  0
 15 45  1  0  0  0  0
 16 20  2  0  0  0  0
 17 18  2  0  0  0  0
 17 22  1  0  0  0  0
 18 23  1  0  0  0  0
 19 21  1  0  0  0  0
 19 46  1  0  0  0  0
 20 24  1  0  0  0  0
 20 47  1  0  0  0  0
 21 24  2  0  0  0  0
 21 48  1  0  0  0  0
 22 25  2  0  0  0  0
 22 49  1  0  0  0  0
 23 26  2  0  0  0  0
 23 51  1  0  0  0  0
 24 52  1  0  0  0  0
 25 26  1  0  0  0  0
 25 53  1  0  0  0  0
 27 28  1  0  0  0  0
 28 29  2  0  0  0  0
 28 30  1  0  0  0  0
 29 31  1  0  0  0  0
 29 54  1  0  0  0  0
 30 32  2  0  0  0  0
 30 55  1  0  0  0  0
 31 33  2  0  0  0  0
 31 56  1  0  0  0  0
 32 33  1  0  0  0  0
 32 57  1  0  0  0  0
 33 34  1  0  0  0  0
M  END
> <PUBCHEM_COMPOUND_CID>
44415638

> <PUBCHEM_COMPOUND_CANONICALIZED>
1

> <PUBCHEM_CACTVS_COMPLEXITY>
809

> <PUBCHEM_CACTVS_HBOND_ACCEPTOR>
5

> <PUBCHEM_CACTVS_HBOND_DONOR>
1

> <PUBCHEM_CACTVS_ROTATABLE_BOND>
3

> <PUBCHEM_CACTVS_SUBSKEYS>
AAADceB7oAAEAAAAAAAAAAAAAAAAAAAAAAA8YMEABAAAAAABUAAAHgIYAAAADArBmCQzwINiAAC4BidydACiBAElBwAbqAEodtgI4PLB35GUIQhggADIyY8YiACOQABAAAICACCAAIAABAQAQAAAAAAAAA==

> <PUBCHEM_IUPAC_OPENEYE_NAME>
N-[3-chloro-6-(4-methylpiperazin-1-yl)benzo[b][1,4]benzodiazepin-11-yl]-4-cyano-benzamide

> <PUBCHEM_IUPAC_CAS_NAME>
N-[3-chloro-6-(4-methyl-1-piperazinyl)-11-benzo[b][1,4]benzodiazepinyl]-4-cyanobenzamide

> <PUBCHEM_IUPAC_NAME_MARKUP>
<I>N</I>-[3-chloro-6-(4-methylpiperazin-1-yl)benzo[b][1,4]benzodiazepin-11-yl]-4-cyanobenzamide

> <PUBCHEM_IUPAC_NAME>
N-[3-chloro-6-(4-methylpiperazin-1-yl)benzo[b][1,4]benzodiazepin-11-yl]-4-cyanobenzamide

> <PUBCHEM_IUPAC_SYSTEMATIC_NAME>
N-[3-chloranyl-6-(4-methylpiperazin-1-yl)benzo[b][1,4]benzodiazepin-11-yl]-4-cyano-benzamide

> <PUBCHEM_IUPAC_TRADITIONAL_NAME>
N-[3-chloro-6-(4-methylpiperazino)benzo[b][1,4]benzodiazepin-11-yl]-4-cyano-benzamide

> <PUBCHEM_IUPAC_INCHI>
InChI=1S/C26H23ClN6O/c1-31-12-14-32(15-13-31)25-21-4-2-3-5-23(21)33(24-11-10-20(27)16-22(24)29-25)30-26(34)19-8-6-18(17-28)7-9-19/h2-11,16H,12-15H2,1H3,(H,30,34)

> <PUBCHEM_IUPAC_INCHIKEY>
MIHSUOYBDPMDLX-UHFFFAOYSA-N

> <PUBCHEM_XLOGP3_AA>
4.1

> <PUBCHEM_EXACT_MASS>
470.1621871

> <PUBCHEM_MOLECULAR_FORMULA>
C26H23ClN6O

> <PUBCHEM_MOLECULAR_WEIGHT>
471.0

> <PUBCHEM_OPENEYE_CAN_SMILES>
CN1CCN(CC1)C2=NC3=C(C=CC(=C3)Cl)N(C4=CC=CC=C42)NC(=O)C5=CC=C(C=C5)C#N

> <PUBCHEM_OPENEYE_ISO_SMILES>
CN1CCN(CC1)C2=NC3=C(C=CC(=C3)Cl)N(C4=CC=CC=C42)NC(=O)C5=CC=C(C=C5)C#N

> <PUBCHEM_CACTVS_TPSA>
75

> <PUBCHEM_MONOISOTOPIC_WEIGHT>
470.1621871

> <PUBCHEM_TOTAL_CHARGE>
0

> <PUBCHEM_HEAVY_ATOM_COUNT>
34

> <PUBCHEM_ATOM_DEF_STEREO_COUNT>
0

> <PUBCHEM_ATOM_UDEF_STEREO_COUNT>
0

> <PUBCHEM_BOND_DEF_STEREO_COUNT>
0

> <PUBCHEM_BOND_UDEF_STEREO_COUNT>
0

> <PUBCHEM_ISOTOPIC_ATOM_COUNT>
0

> <PUBCHEM_COMPONENT_COUNT>
1

> <PUBCHEM_CACTVS_TAUTO_COUNT>
-1

> <PUBCHEM_COORDINATE_TYPE>
1
5
255

> <PUBCHEM_BONDANNOTATIONS>
14  16  8
14  19  8
16  20  8
17  18  8
17  22  8
18  23  8
19  21  8
20  24  8
21  24  8
22  25  8
23  26  8
25  26  8
28  29  8
28  30  8
29  31  8
30  32  8
31  33  8
32  33  8

$$$$
