156552387
  -OEChem-09292322452D

 55 57  0     1  0  0  0  0  0999 V2000
    5.5443   -4.1626    0.0000 O   0  0  0  0  0  0  0  0  0  0  0  0
    9.7225    1.8676    0.0000 O   0  0  0  0  0  0  0  0  0  0  0  0
   10.3438    3.7686    0.0000 O   0  0  0  0  0  0  0  0  0  0  0  0
    6.4763    0.2984    0.0000 N   0  0  0  0  0  0  0  0  0  0  0  0
    8.0761    2.4056    0.0000 N   0  0  0  0  0  0  0  0  0  0  0  0
    6.1279   -3.3579    0.0000 N   0  0  0  0  0  0  0  0  0  0  0  0
    5.8550   -1.6027    0.0000 C   0  0  0  0  0  0  0  0  0  0  0  0
    5.1871   -0.8584    0.0000 C   0  0  0  0  0  0  0  0  0  0  0  0
    6.8335   -1.3964    0.0000 C   0  0  0  0  0  0  0  0  0  0  0  0
    5.4978    0.0922    0.0000 C   0  0  0  0  0  0  0  0  0  0  0  0
    7.1441   -0.4459    0.0000 C   0  0  0  0  0  0  0  0  0  0  0  0
    6.7870    1.2489    0.0000 C   0  0  0  0  0  0  0  0  0  0  0  0
    5.5443   -2.5532    0.0000 C   0  0  0  0  0  0  0  0  0  0  0  0
    7.7654    1.4551    0.0000 C   0  0  0  0  0  0  0  0  0  0  0  0
    4.5981   -2.8579    0.0000 C   0  0  0  0  0  0  0  0  0  0  0  0
    4.5981   -3.8579    0.0000 C   0  0  0  0  0  0  0  0  0  0  0  0
    3.7320   -2.3579    0.0000 C   0  0  0  0  0  0  0  0  0  0  0  0
    7.4083    3.1499    0.0000 C   0  0  0  0  0  0  0  0  0  0  0  0
    9.0546    2.6118    0.0000 C   0  0  0  0  0  0  0  0  0  0  0  0
    3.7320   -4.3579    0.0000 C   0  0  0  0  0  0  0  0  0  0  0  0
    2.8660   -2.8579    0.0000 C   0  0  0  0  0  0  0  0  0  0  0  0
    2.8660   -3.8579    0.0000 C   0  0  0  0  0  0  0  0  0  0  0  0
    9.3653    3.5624    0.0000 C   0  0  2  0  0  0  0  0  0  0  0  0
    7.7189    4.1005    0.0000 C   0  0  0  0  0  0  0  0  0  0  0  0
    2.0000   -2.3579    0.0000 C   0  0  0  0  0  0  0  0  0  0  0  0
    8.6974    4.3067    0.0000 C   0  0  0  0  0  0  0  0  0  0  0  0
    6.2690   -2.0641    0.0000 H   0  0  0  0  0  0  0  0  0  0  0  0
    4.6402   -0.5663    0.0000 H   0  0  0  0  0  0  0  0  0  0  0  0
    4.8046   -1.3463    0.0000 H   0  0  0  0  0  0  0  0  0  0  0  0
    6.8540   -2.0161    0.0000 H   0  0  0  0  0  0  0  0  0  0  0  0
    7.4473   -1.4838    0.0000 H   0  0  0  0  0  0  0  0  0  0  0  0
    5.4772    0.7118    0.0000 H   0  0  0  0  0  0  0  0  0  0  0  0
    4.8840    0.1795    0.0000 H   0  0  0  0  0  0  0  0  0  0  0  0
    7.6910   -0.7379    0.0000 H   0  0  0  0  0  0  0  0  0  0  0  0
    7.5267    0.0420    0.0000 H   0  0  0  0  0  0  0  0  0  0  0  0
    6.7664    1.8686    0.0000 H   0  0  0  0  0  0  0  0  0  0  0  0
    6.1731    1.3362    0.0000 H   0  0  0  0  0  0  0  0  0  0  0  0
    7.7860    0.8355    0.0000 H   0  0  0  0  0  0  0  0  0  0  0  0
    8.3793    1.3678    0.0000 H   0  0  0  0  0  0  0  0  0  0  0  0
    3.7320   -1.7379    0.0000 H   0  0  0  0  0  0  0  0  0  0  0  0
    6.8614    3.4420    0.0000 H   0  0  0  0  0  0  0  0  0  0  0  0
    7.0257    2.6620    0.0000 H   0  0  0  0  0  0  0  0  0  0  0  0
    3.7320   -4.9779    0.0000 H   0  0  0  0  0  0  0  0  0  0  0  0
    2.3291   -4.1679    0.0000 H   0  0  0  0  0  0  0  0  0  0  0  0
    9.7794    3.1009    0.0000 H   0  0  0  0  0  0  0  0  0  0  0  0
    8.3083    3.9078    0.0000 H   0  0  0  0  0  0  0  0  0  0  0  0
    7.9115    4.6898    0.0000 H   0  0  0  0  0  0  0  0  0  0  0  0
    7.1296    4.2931    0.0000 H   0  0  0  0  0  0  0  0  0  0  0  0
    2.3100   -1.8210    0.0000 H   0  0  0  0  0  0  0  0  0  0  0  0
    1.4631   -2.0479    0.0000 H   0  0  0  0  0  0  0  0  0  0  0  0
    1.6900   -2.8948    0.0000 H   0  0  0  0  0  0  0  0  0  0  0  0
    9.1589    4.7207    0.0000 H   0  0  0  0  0  0  0  0  0  0  0  0
    8.2834    4.7681    0.0000 H   0  0  0  0  0  0  0  0  0  0  0  0
    8.2360    3.8926    0.0000 H   0  0  0  0  0  0  0  0  0  0  0  0
   10.5364    4.3579    0.0000 H   0  0  0  0  0  0  0  0  0  0  0  0
  1  6  1  0  0  0  0
  1 16  1  0  0  0  0
  2 19  2  0  0  0  0
 23  3  1  6  0  0  0
  3 55  1  0  0  0  0
  4 10  1  0  0  0  0
  4 11  1  0  0  0  0
  4 12  1  0  0  0  0
  5 14  1  0  0  0  0
  5 18  1  0  0  0  0
  5 19  1  0  0  0  0
  6 13  2  0  0  0  0
  7  8  1  0  0  0  0
  7  9  1  0  0  0  0
  7 13  1  0  0  0  0
  7 27  1  0  0  0  0
  8 10  1  0  0  0  0
  8 28  1  0  0  0  0
  8 29  1  0  0  0  0
  9 11  1  0  0  0  0
  9 30  1  0  0  0  0
  9 31  1  0  0  0  0
 10 32  1  0  0  0  0
 10 33  1  0  0  0  0
 11 34  1  0  0  0  0
 11 35  1  0  0  0  0
 12 14  1  0  0  0  0
 12 36  1  0  0  0  0
 12 37  1  0  0  0  0
 13 15  1  0  0  0  0
 14 38  1  0  0  0  0
 14 39  1  0  0  0  0
 15 16  2  0  0  0  0
 15 17  1  0  0  0  0
 16 20  1  0  0  0  0
 17 21  2  0  0  0  0
 17 40  1  0  0  0  0
 18 24  1  0  0  0  0
 18 41  1  0  0  0  0
 18 42  1  0  0  0  0
 19 23  1  0  0  0  0
 20 22  2  0  0  0  0
 20 43  1  0  0  0  0
 21 22  1  0  0  0  0
 21 25  1  0  0  0  0
 22 44  1  0  0  0  0
 23 26  1  0  0  0  0
 23 45  1  0  0  0  0
 24 46  1  0  0  0  0
 24 47  1  0  0  0  0
 24 48  1  0  0  0  0
 25 49  1  0  0  0  0
 25 50  1  0  0  0  0
 25 51  1  0  0  0  0
 26 52  1  0  0  0  0
 26 53  1  0  0  0  0
 26 54  1  0  0  0  0
M  END
> <PUBCHEM_COMPOUND_CID>
156552387

> <PUBCHEM_COMPOUND_CANONICALIZED>
1

> <PUBCHEM_CACTVS_COMPLEXITY>
467

> <PUBCHEM_CACTVS_HBOND_ACCEPTOR>
5

> <PUBCHEM_CACTVS_HBOND_DONOR>
1

> <PUBCHEM_CACTVS_ROTATABLE_BOND>
6

> <PUBCHEM_CACTVS_SUBSKEYS>
AAADceB7MAAAAAAAAAAAAAAAAAAAAWAAAAA8QAAAAAAAAFgB8AAAHgAECAAADRzhngYyhtMQAgCpA6VyUgKCAAAkIAAomCF+TNoKdrqAlZOUMYBmxhmYyceYyOCOIAACAAAIAABAAAQAABAAAAAAAAAAAA==

> <PUBCHEM_IUPAC_OPENEYE_NAME>
(2S)-N-ethyl-2-hydroxy-N-[2-[4-(5-methyl-1,2-benzoxazol-3-yl)-1-piperidyl]ethyl]propanamide

> <PUBCHEM_IUPAC_CAS_NAME>
(2S)-N-ethyl-2-hydroxy-N-[2-[4-(5-methyl-1,2-benzoxazol-3-yl)-1-piperidinyl]ethyl]propanamide

> <PUBCHEM_IUPAC_NAME_MARKUP>
(2<I>S</I>)-<I>N</I>-ethyl-2-hydroxy-<I>N</I>-[2-[4-(5-methyl-1,2-benzoxazol-3-yl)piperidin-1-yl]ethyl]propanamide

> <PUBCHEM_IUPAC_NAME>
(2S)-N-ethyl-2-hydroxy-N-[2-[4-(5-methyl-1,2-benzoxazol-3-yl)piperidin-1-yl]ethyl]propanamide

> <PUBCHEM_IUPAC_SYSTEMATIC_NAME>
(2S)-N-ethyl-N-[2-[4-(5-methyl-1,2-benzoxazol-3-yl)piperidin-1-yl]ethyl]-2-oxidanyl-propanamide

> <PUBCHEM_IUPAC_TRADITIONAL_NAME>
(2S)-N-ethyl-2-hydroxy-N-[2-[4-(5-methylindoxazen-3-yl)piperidino]ethyl]propionamide

> <PUBCHEM_IUPAC_INCHI>
InChI=1S/C20H29N3O3/c1-4-23(20(25)15(3)24)12-11-22-9-7-16(8-10-22)19-17-13-14(2)5-6-18(17)26-21-19/h5-6,13,15-16,24H,4,7-12H2,1-3H3/t15-/m0/s1

> <PUBCHEM_IUPAC_INCHIKEY>
IYCHAMBXIBWQLQ-HNNXBMFYSA-N

> <PUBCHEM_XLOGP3_AA>
2.3

> <PUBCHEM_EXACT_MASS>
359.22089180

> <PUBCHEM_MOLECULAR_FORMULA>
C20H29N3O3

> <PUBCHEM_MOLECULAR_WEIGHT>
359.5

> <PUBCHEM_OPENEYE_CAN_SMILES>
CCN(CCN1CCC(CC1)C2=NOC3=C2C=C(C=C3)C)C(=O)C(C)O

> <PUBCHEM_OPENEYE_ISO_SMILES>
CCN(CCN1CCC(CC1)C2=NOC3=C2C=C(C=C3)C)C(=O)[C@H](C)O

> <PUBCHEM_CACTVS_TPSA>
69.8

> <PUBCHEM_MONOISOTOPIC_WEIGHT>
359.22089180

> <PUBCHEM_TOTAL_CHARGE>
0

> <PUBCHEM_HEAVY_ATOM_COUNT>
26

> <PUBCHEM_ATOM_DEF_STEREO_COUNT>
1

> <PUBCHEM_ATOM_UDEF_STEREO_COUNT>
0

> <PUBCHEM_BOND_DEF_STEREO_COUNT>
0

> <PUBCHEM_BOND_UDEF_STEREO_COUNT>
0

> <PUBCHEM_ISOTOPIC_ATOM_COUNT>
0

> <PUBCHEM_COMPONENT_COUNT>
1

> <PUBCHEM_CACTVS_TAUTO_COUNT>
-1

> <PUBCHEM_COORDINATE_TYPE>
1
5
255

> <PUBCHEM_BONDANNOTATIONS>
1  16  8
1  6  8
13  15  8
15  16  8
15  17  8
16  20  8
17  21  8
20  22  8
21  22  8
23  3  6
6  13  8

$$$$
