45265597
  -OEChem-09292322122D

 74 77  0     1  0  0  0  0  0999 V2000
    7.8744    0.0000    0.0000 Cl  0  0  0  0  0  0  0  0  0  0  0  0
   15.3427    7.9867    0.0000 S   0  0  0  0  0  0  0  0  0  0  0  0
    4.1200    4.8611    0.0000 O   0  0  0  0  0  0  0  0  0  0  0  0
   14.4747    8.4834    0.0000 O   0  0  0  0  0  0  0  0  0  0  0  0
   15.8393    8.8546    0.0000 O   0  0  0  0  0  0  0  0  0  0  0  0
   14.8460    7.1188    0.0000 O   0  0  0  0  0  0  0  0  0  0  0  0
    9.6200    7.4592    0.0000 N   0  0  3  0  0  0  0  0  0  0  0  0
    4.1200    6.5932    0.0000 N   0  0  0  0  0  0  0  0  0  0  0  0
    0.5853    3.9672    0.0000 N   0  0  0  0  0  0  0  0  0  0  0  0
    7.1200    6.5932    0.0000 C   0  0  0  0  0  0  0  0  0  0  0  0
    6.6200    5.7272    0.0000 C   0  0  0  0  0  0  0  0  0  0  0  0
    6.6200    7.4592    0.0000 C   0  0  0  0  0  0  0  0  0  0  0  0
    5.1200    6.5932    0.0000 C   0  0  0  0  0  0  0  0  0  0  0  0
    5.6200    5.7272    0.0000 C   0  0  0  0  0  0  0  0  0  0  0  0
    5.6200    7.4592    0.0000 C   0  0  0  0  0  0  0  0  0  0  0  0
    8.1200    6.5932    0.0000 C   0  0  0  0  0  0  0  0  0  0  0  0
    8.6200    7.4592    0.0000 C   0  0  0  0  0  0  0  0  0  0  0  0
   10.0539    8.3602    0.0000 C   0  0  0  0  0  0  0  0  0  0  0  0
   10.0539    6.5582    0.0000 C   0  0  0  0  0  0  0  0  0  0  0  0
   11.0288    8.5827    0.0000 C   0  0  0  0  0  0  0  0  0  0  0  0
   11.0288    6.3357    0.0000 C   0  0  0  0  0  0  0  0  0  0  0  0
   11.8106    7.9592    0.0000 C   0  0  0  0  0  0  0  0  0  0  0  0
   11.8106    6.9592    0.0000 C   0  0  0  0  0  0  0  0  0  0  0  0
    3.6200    5.7272    0.0000 C   0  0  0  0  0  0  0  0  0  0  0  0
   12.7046    8.4939    0.0000 C   0  0  0  0  0  0  0  0  0  0  0  0
    2.6200    5.7272    0.0000 C   0  0  0  0  0  0  0  0  0  0  0  0
   12.7046    6.4246    0.0000 C   0  0  0  0  0  0  0  0  0  0  0  0
   13.6107    7.9800    0.0000 C   0  0  0  0  0  0  0  0  0  0  0  0
   13.6107    6.9384    0.0000 C   0  0  0  0  0  0  0  0  0  0  0  0
    2.1200    4.8611    0.0000 C   0  0  0  0  0  0  0  0  0  0  0  0
    2.1200    6.5932    0.0000 C   0  0  0  0  0  0  0  0  0  0  0  0
    1.1200    4.8611    0.0000 C   0  0  0  0  0  0  0  0  0  0  0  0
    1.1200    6.5932    0.0000 C   0  0  0  0  0  0  0  0  0  0  0  0
    2.6547    3.9672    0.0000 C   0  0  0  0  0  0  0  0  0  0  0  0
    0.6200    5.7272    0.0000 C   0  0  0  0  0  0  0  0  0  0  0  0
    2.1408    3.0611    0.0000 C   0  0  0  0  0  0  0  0  0  0  0  0
    1.0992    3.0611    0.0000 C   0  0  0  0  0  0  0  0  0  0  0  0
   16.2106    7.4900    0.0000 C   0  0  0  0  0  0  0  0  0  0  0  0
    7.4300    7.1301    0.0000 H   0  0  0  0  0  0  0  0  0  0  0  0
    6.5123    5.1166    0.0000 H   0  0  0  0  0  0  0  0  0  0  0  0
    7.2026    5.5151    0.0000 H   0  0  0  0  0  0  0  0  0  0  0  0
    7.2026    7.6713    0.0000 H   0  0  0  0  0  0  0  0  0  0  0  0
    6.5123    8.0698    0.0000 H   0  0  0  0  0  0  0  0  0  0  0  0
    4.8100    7.1301    0.0000 H   0  0  0  0  0  0  0  0  0  0  0  0
    5.0374    5.5151    0.0000 H   0  0  0  0  0  0  0  0  0  0  0  0
    5.7277    5.1166    0.0000 H   0  0  0  0  0  0  0  0  0  0  0  0
    5.7277    8.0698    0.0000 H   0  0  0  0  0  0  0  0  0  0  0  0
    5.0374    7.6713    0.0000 H   0  0  0  0  0  0  0  0  0  0  0  0
    8.0123    5.9826    0.0000 H   0  0  0  0  0  0  0  0  0  0  0  0
    8.7026    6.3811    0.0000 H   0  0  0  0  0  0  0  0  0  0  0  0
    8.7277    8.0698    0.0000 H   0  0  0  0  0  0  0  0  0  0  0  0
    8.0374    7.6713    0.0000 H   0  0  0  0  0  0  0  0  0  0  0  0
    3.8100    7.1301    0.0000 H   0  0  0  0  0  0  0  0  0  0  0  0
   10.0539    8.9802    0.0000 H   0  0  0  0  0  0  0  0  0  0  0  0
    9.4494    8.4981    0.0000 H   0  0  0  0  0  0  0  0  0  0  0  0
    9.4494    6.4203    0.0000 H   0  0  0  0  0  0  0  0  0  0  0  0
   10.0539    5.9382    0.0000 H   0  0  0  0  0  0  0  0  0  0  0  0
   11.5135    8.9693    0.0000 H   0  0  0  0  0  0  0  0  0  0  0  0
   10.7598    9.1413    0.0000 H   0  0  0  0  0  0  0  0  0  0  0  0
   10.7598    5.7771    0.0000 H   0  0  0  0  0  0  0  0  0  0  0  0
   11.5135    5.9492    0.0000 H   0  0  0  0  0  0  0  0  0  0  0  0
   12.6974    9.1138    0.0000 H   0  0  0  0  0  0  0  0  0  0  0  0
   12.6974    5.8046    0.0000 H   0  0  0  0  0  0  0  0  0  0  0  0
   14.1464    6.6263    0.0000 H   0  0  0  0  0  0  0  0  0  0  0  0
    2.4300    7.1301    0.0000 H   0  0  0  0  0  0  0  0  0  0  0  0
    0.8100    7.1301    0.0000 H   0  0  0  0  0  0  0  0  0  0  0  0
    3.2746    3.9744    0.0000 H   0  0  0  0  0  0  0  0  0  0  0  0
    0.0000    5.7272    0.0000 H   0  0  0  0  0  0  0  0  0  0  0  0
    2.4529    2.5254    0.0000 H   0  0  0  0  0  0  0  0  0  0  0  0
    0.7871    2.5254    0.0000 H   0  0  0  0  0  0  0  0  0  0  0  0
   15.9027    6.9519    0.0000 H   0  0  0  0  0  0  0  0  0  0  0  0
   16.7488    7.1821    0.0000 H   0  0  0  0  0  0  0  0  0  0  0  0
   16.5186    8.0282    0.0000 H   0  0  0  0  0  0  0  0  0  0  0  0
    8.8744    0.0000    0.0000 H   0  0  0  0  0  0  0  0  0  0  0  0
  1 74  1  0  0  0  0
  2  4  1  0  0  0  0
  2  5  2  0  0  0  0
  2  6  2  0  0  0  0
  2 38  1  0  0  0  0
  3 24  2  0  0  0  0
  4 28  1  0  0  0  0
  7 17  1  0  0  0  0
  7 18  1  0  0  0  0
  7 19  1  0  0  0  0
  8 13  1  0  0  0  0
  8 24  1  0  0  0  0
  8 53  1  0  0  0  0
  9 32  1  0  0  0  0
  9 37  2  0  0  0  0
 10 11  1  0  0  0  0
 10 12  1  0  0  0  0
 10 16  1  0  0  0  0
 10 39  1  0  0  0  0
 11 14  1  0  0  0  0
 11 40  1  0  0  0  0
 11 41  1  0  0  0  0
 12 15  1  0  0  0  0
 12 42  1  0  0  0  0
 12 43  1  0  0  0  0
 13 14  1  0  0  0  0
 13 15  1  0  0  0  0
 13 44  1  0  0  0  0
 14 45  1  0  0  0  0
 14 46  1  0  0  0  0
 15 47  1  0  0  0  0
 15 48  1  0  0  0  0
 16 17  1  0  0  0  0
 16 49  1  0  0  0  0
 16 50  1  0  0  0  0
 17 51  1  0  0  0  0
 17 52  1  0  0  0  0
 18 20  1  0  0  0  0
 18 54  1  0  0  0  0
 18 55  1  0  0  0  0
 19 21  1  0  0  0  0
 19 56  1  0  0  0  0
 19 57  1  0  0  0  0
 20 22  1  0  0  0  0
 20 58  1  0  0  0  0
 20 59  1  0  0  0  0
 21 23  1  0  0  0  0
 21 60  1  0  0  0  0
 21 61  1  0  0  0  0
 22 23  2  0  0  0  0
 22 25  1  0  0  0  0
 23 27  1  0  0  0  0
 24 26  1  0  0  0  0
 25 28  2  0  0  0  0
 25 62  1  0  0  0  0
 26 30  2  0  0  0  0
 26 31  1  0  0  0  0
 27 29  2  0  0  0  0
 27 63  1  0  0  0  0
 28 29  1  0  0  0  0
 29 64  1  0  0  0  0
 30 32  1  0  0  0  0
 30 34  1  0  0  0  0
 31 33  2  0  0  0  0
 31 65  1  0  0  0  0
 32 35  2  0  0  0  0
 33 35  1  0  0  0  0
 33 66  1  0  0  0  0
 34 36  2  0  0  0  0
 34 67  1  0  0  0  0
 35 68  1  0  0  0  0
 36 37  1  0  0  0  0
 36 69  1  0  0  0  0
 37 70  1  0  0  0  0
 38 71  1  0  0  0  0
 38 72  1  0  0  0  0
 38 73  1  0  0  0  0
M  END
> <PUBCHEM_COMPOUND_CID>
45265597

> <PUBCHEM_COMPOUND_CANONICALIZED>
1

> <PUBCHEM_CACTVS_COMPLEXITY>
854

> <PUBCHEM_CACTVS_HBOND_ACCEPTOR>
6

> <PUBCHEM_CACTVS_HBOND_DONOR>
2

> <PUBCHEM_CACTVS_ROTATABLE_BOND>
7

> <PUBCHEM_CACTVS_SUBSKEYS>
AAADcfB7OABEAAAAAAAAAAAAAAAAAAAAAAA8YMEABYAAAACx9AAAHgQQAAAADSzBngS+xvPIEAKoAzV3VHCCgCA1IiAI2KE+bNgIJvLAlZOEMQhk1hHIyYec2LKOoAABQAASAABQAAKAACQAAAAAAAAAAA==

> <PUBCHEM_IUPAC_OPENEYE_NAME>
[3-[2-[4-(quinoline-5-carbonylamino)cyclohexyl]ethyl]-1,2,4,5-tetrahydro-3-benzazepin-7-yl] methanesulfonate;hydrochloride

> <PUBCHEM_IUPAC_CAS_NAME>
methanesulfonic acid [3-[2-[4-[[oxo(5-quinolinyl)methyl]amino]cyclohexyl]ethyl]-1,2,4,5-tetrahydro-3-benzazepin-7-yl] ester;hydrochloride

> <PUBCHEM_IUPAC_NAME_MARKUP>
[3-[2-[4-(quinoline-5-carbonylamino)cyclohexyl]ethyl]-1,2,4,5-tetrahydro-3-benzazepin-7-yl] methanesulfonate;hydrochloride

> <PUBCHEM_IUPAC_NAME>
[3-[2-[4-(quinoline-5-carbonylamino)cyclohexyl]ethyl]-1,2,4,5-tetrahydro-3-benzazepin-7-yl] methanesulfonate;hydrochloride

> <PUBCHEM_IUPAC_SYSTEMATIC_NAME>
[3-[2-[4-(quinolin-5-ylcarbonylamino)cyclohexyl]ethyl]-1,2,4,5-tetrahydro-3-benzazepin-7-yl] methanesulfonate;hydrochloride

> <PUBCHEM_IUPAC_TRADITIONAL_NAME>
methanesulfonic acid [3-[2-[4-(quinoline-5-carbonylamino)cyclohexyl]ethyl]-1,2,4,5-tetrahydro-3-benzazepin-7-yl] ester;hydrochloride

> <PUBCHEM_IUPAC_INCHI>
InChI=1S/C29H35N3O4S.ClH/c1-37(34,35)36-25-12-9-22-14-18-32(19-15-23(22)20-25)17-13-21-7-10-24(11-8-21)31-29(33)27-4-2-6-28-26(27)5-3-16-30-28;/h2-6,9,12,16,20-21,24H,7-8,10-11,13-15,17-19H2,1H3,(H,31,33);1H

> <PUBCHEM_IUPAC_INCHIKEY>
KTZNAWFFFYZJDF-UHFFFAOYSA-N

> <PUBCHEM_EXACT_MASS>
557.2115055

> <PUBCHEM_MOLECULAR_FORMULA>
C29H36ClN3O4S

> <PUBCHEM_MOLECULAR_WEIGHT>
558.1

> <PUBCHEM_OPENEYE_CAN_SMILES>
CS(=O)(=O)OC1=CC2=C(CCN(CC2)CCC3CCC(CC3)NC(=O)C4=C5C=CC=NC5=CC=C4)C=C1.Cl

> <PUBCHEM_OPENEYE_ISO_SMILES>
CS(=O)(=O)OC1=CC2=C(CCN(CC2)CCC3CCC(CC3)NC(=O)C4=C5C=CC=NC5=CC=C4)C=C1.Cl

> <PUBCHEM_CACTVS_TPSA>
97

> <PUBCHEM_MONOISOTOPIC_WEIGHT>
557.2115055

> <PUBCHEM_TOTAL_CHARGE>
0

> <PUBCHEM_HEAVY_ATOM_COUNT>
38

> <PUBCHEM_ATOM_DEF_STEREO_COUNT>
0

> <PUBCHEM_ATOM_UDEF_STEREO_COUNT>
0

> <PUBCHEM_BOND_DEF_STEREO_COUNT>
0

> <PUBCHEM_BOND_UDEF_STEREO_COUNT>
0

> <PUBCHEM_ISOTOPIC_ATOM_COUNT>
0

> <PUBCHEM_COMPONENT_COUNT>
2

> <PUBCHEM_CACTVS_TAUTO_COUNT>
-1

> <PUBCHEM_COORDINATE_TYPE>
1
5
255

> <PUBCHEM_BONDANNOTATIONS>
22  23  8
22  25  8
23  27  8
25  28  8
26  30  8
26  31  8
27  29  8
28  29  8
30  32  8
30  34  8
31  33  8
32  35  8
33  35  8
34  36  8
36  37  8
9  32  8
9  37  8

$$$$
