3083481
  -OEChem-09292322112D

 51 54  0     1  0  0  0  0  0999 V2000
    2.5369    1.4654    0.0000 O   0  0  0  0  0  0  0  0  0  0  0  0
    4.2690   -0.5346    0.0000 N   0  0  0  0  0  0  0  0  0  0  0  0
    4.2690    1.4654    0.0000 C   0  0  0  0  0  0  0  0  0  0  0  0
    3.4030    0.9654    0.0000 C   0  0  0  0  0  0  0  0  0  0  0  0
    5.1350    0.9654    0.0000 C   0  0  0  0  0  0  0  0  0  0  0  0
    5.1350    1.9654    0.0000 C   0  0  0  0  0  0  0  0  0  0  0  0
    3.4030    1.9654    0.0000 C   0  0  3  0  0  0  0  0  0  0  0  0
    3.4030   -0.0346    0.0000 C   0  0  0  0  0  0  0  0  0  0  0  0
    5.1350   -0.0346    0.0000 C   0  0  0  0  0  0  0  0  0  0  0  0
    5.1350    2.9654    0.0000 C   0  0  0  0  0  0  0  0  0  0  0  0
    3.4030    2.9654    0.0000 C   0  0  0  0  0  0  0  0  0  0  0  0
    4.2690    3.4654    0.0000 C   0  0  0  0  0  0  0  0  0  0  0  0
    4.2690   -1.5346    0.0000 C   0  0  0  0  0  0  0  0  0  0  0  0
    2.4930    3.4722    0.0000 C   0  0  0  0  0  0  0  0  0  0  0  0
    4.2850    4.5069    0.0000 C   0  0  0  0  0  0  0  0  0  0  0  0
    5.1350   -2.0346    0.0000 C   0  0  0  0  0  0  0  0  0  0  0  0
    2.4849    4.5138    0.0000 C   0  0  0  0  0  0  0  0  0  0  0  0
    3.3870    5.0346    0.0000 C   0  0  0  0  0  0  0  0  0  0  0  0
    5.1350   -3.0346    0.0000 C   0  0  0  0  0  0  0  0  0  0  0  0
    6.0010   -3.5346    0.0000 C   0  0  0  0  0  0  0  0  0  0  0  0
    4.2690   -3.5346    0.0000 C   0  0  0  0  0  0  0  0  0  0  0  0
    6.0010   -4.5346    0.0000 C   0  0  0  0  0  0  0  0  0  0  0  0
    4.2690   -4.5346    0.0000 C   0  0  0  0  0  0  0  0  0  0  0  0
    5.1350   -5.0346    0.0000 C   0  0  0  0  0  0  0  0  0  0  0  0
    3.1909    1.5480    0.0000 H   0  0  0  0  0  0  0  0  0  0  0  0
    2.7924    0.8577    0.0000 H   0  0  0  0  0  0  0  0  0  0  0  0
    5.7456    0.8577    0.0000 H   0  0  0  0  0  0  0  0  0  0  0  0
    5.3471    1.5480    0.0000 H   0  0  0  0  0  0  0  0  0  0  0  0
    5.3471    1.3828    0.0000 H   0  0  0  0  0  0  0  0  0  0  0  0
    5.7456    2.0730    0.0000 H   0  0  0  0  0  0  0  0  0  0  0  0
    2.8660    2.2754    0.0000 H   0  0  0  0  0  0  0  0  0  0  0  0
    2.7924    0.0730    0.0000 H   0  0  0  0  0  0  0  0  0  0  0  0
    3.1909   -0.6172    0.0000 H   0  0  0  0  0  0  0  0  0  0  0  0
    5.3471   -0.6172    0.0000 H   0  0  0  0  0  0  0  0  0  0  0  0
    5.7456    0.0730    0.0000 H   0  0  0  0  0  0  0  0  0  0  0  0
    5.7456    2.8577    0.0000 H   0  0  0  0  0  0  0  0  0  0  0  0
    5.3471    3.5480    0.0000 H   0  0  0  0  0  0  0  0  0  0  0  0
    3.6584   -1.4270    0.0000 H   0  0  0  0  0  0  0  0  0  0  0  0
    4.0569   -2.1172    0.0000 H   0  0  0  0  0  0  0  0  0  0  0  0
    2.0000    1.7754    0.0000 H   0  0  0  0  0  0  0  0  0  0  0  0
    1.9596    3.1560    0.0000 H   0  0  0  0  0  0  0  0  0  0  0  0
    4.8255    4.8106    0.0000 H   0  0  0  0  0  0  0  0  0  0  0  0
    5.7456   -2.1423    0.0000 H   0  0  0  0  0  0  0  0  0  0  0  0
    5.3471   -1.4520    0.0000 H   0  0  0  0  0  0  0  0  0  0  0  0
    1.9468    4.8217    0.0000 H   0  0  0  0  0  0  0  0  0  0  0  0
    3.3894    5.6546    0.0000 H   0  0  0  0  0  0  0  0  0  0  0  0
    6.5380   -3.2246    0.0000 H   0  0  0  0  0  0  0  0  0  0  0  0
    3.7320   -3.2246    0.0000 H   0  0  0  0  0  0  0  0  0  0  0  0
    6.5380   -4.8446    0.0000 H   0  0  0  0  0  0  0  0  0  0  0  0
    3.7320   -4.8446    0.0000 H   0  0  0  0  0  0  0  0  0  0  0  0
    5.1350   -5.6546    0.0000 H   0  0  0  0  0  0  0  0  0  0  0  0
  1  7  1  0  0  0  0
  1 40  1  0  0  0  0
  2  8  1  0  0  0  0
  2  9  1  0  0  0  0
  2 13  1  0  0  0  0
  3  4  1  0  0  0  0
  3  5  1  0  0  0  0
  3  6  1  0  0  0  0
  3  7  1  0  0  0  0
  4  8  1  0  0  0  0
  4 25  1  0  0  0  0
  4 26  1  0  0  0  0
  5  9  1  0  0  0  0
  5 27  1  0  0  0  0
  5 28  1  0  0  0  0
  6 10  1  0  0  0  0
  6 29  1  0  0  0  0
  6 30  1  0  0  0  0
  7 11  1  0  0  0  0
  7 31  1  0  0  0  0
  8 32  1  0  0  0  0
  8 33  1  0  0  0  0
  9 34  1  0  0  0  0
  9 35  1  0  0  0  0
 10 12  1  0  0  0  0
 10 36  1  0  0  0  0
 10 37  1  0  0  0  0
 11 12  1  0  0  0  0
 11 14  2  0  0  0  0
 12 15  2  0  0  0  0
 13 16  1  0  0  0  0
 13 38  1  0  0  0  0
 13 39  1  0  0  0  0
 14 17  1  0  0  0  0
 14 41  1  0  0  0  0
 15 18  1  0  0  0  0
 15 42  1  0  0  0  0
 16 19  1  0  0  0  0
 16 43  1  0  0  0  0
 16 44  1  0  0  0  0
 17 18  2  0  0  0  0
 17 45  1  0  0  0  0
 18 46  1  0  0  0  0
 19 20  2  0  0  0  0
 19 21  1  0  0  0  0
 20 22  1  0  0  0  0
 20 47  1  0  0  0  0
 21 23  2  0  0  0  0
 21 48  1  0  0  0  0
 22 24  2  0  0  0  0
 22 49  1  0  0  0  0
 23 24  1  0  0  0  0
 23 50  1  0  0  0  0
 24 51  1  0  0  0  0
M  END
> <PUBCHEM_COMPOUND_CID>
3083481

> <PUBCHEM_COMPOUND_CANONICALIZED>
1

> <PUBCHEM_CACTVS_COMPLEXITY>
395

> <PUBCHEM_CACTVS_HBOND_ACCEPTOR>
2

> <PUBCHEM_CACTVS_HBOND_DONOR>
1

> <PUBCHEM_CACTVS_ROTATABLE_BOND>
3

> <PUBCHEM_CACTVS_SUBSKEYS>
AAADceB6IAAAAAAAAAAAAAAAAAAAAAAAAAA8YMEAAAAAAADBQAAAHgAACAAADhThmAYwAIMAAgCAAiBCAAACAAAgAAAIiAAICIgINiKAkRGEcAAkwAGImAewwPAPgAAAAAAQAACAAAYAADAAAAAAAAAAAA==

> <PUBCHEM_IUPAC_OPENEYE_NAME>
1-(2-phenylethyl)spiro[piperidine-4,2'-tetralin]-1'-ol

> <PUBCHEM_IUPAC_CAS_NAME>
1'-(2-phenylethyl)-1-spiro[3,4-dihydro-1H-naphthalene-2,4'-piperidine]ol

> <PUBCHEM_IUPAC_NAME_MARKUP>
1&apos;-(2-phenylethyl)spiro[3,4-dihydro-1<I>H</I>-naphthalene-2,4&apos;-piperidine]-1-ol

> <PUBCHEM_IUPAC_NAME>
1'-(2-phenylethyl)spiro[3,4-dihydro-1H-naphthalene-2,4'-piperidine]-1-ol

> <PUBCHEM_IUPAC_SYSTEMATIC_NAME>
1'-(2-phenylethyl)spiro[3,4-dihydro-1H-naphthalene-2,4'-piperidine]-1-ol

> <PUBCHEM_IUPAC_TRADITIONAL_NAME>
1-phenethylspiro[piperidine-4,2'-tetralin]-1'-ol

> <PUBCHEM_IUPAC_INCHI>
InChI=1S/C22H27NO/c24-21-20-9-5-4-8-19(20)10-12-22(21)13-16-23(17-14-22)15-11-18-6-2-1-3-7-18/h1-9,21,24H,10-17H2

> <PUBCHEM_IUPAC_INCHIKEY>
XKIGTQXAOLOQJD-UHFFFAOYSA-N

> <PUBCHEM_XLOGP3_AA>
4.1

> <PUBCHEM_EXACT_MASS>
321.209264485

> <PUBCHEM_MOLECULAR_FORMULA>
C22H27NO

> <PUBCHEM_MOLECULAR_WEIGHT>
321.5

> <PUBCHEM_OPENEYE_CAN_SMILES>
C1CC2(CCN(CC2)CCC3=CC=CC=C3)C(C4=CC=CC=C41)O

> <PUBCHEM_OPENEYE_ISO_SMILES>
C1CC2(CCN(CC2)CCC3=CC=CC=C3)C(C4=CC=CC=C41)O

> <PUBCHEM_CACTVS_TPSA>
23.5

> <PUBCHEM_MONOISOTOPIC_WEIGHT>
321.209264485

> <PUBCHEM_TOTAL_CHARGE>
0

> <PUBCHEM_HEAVY_ATOM_COUNT>
24

> <PUBCHEM_ATOM_DEF_STEREO_COUNT>
0

> <PUBCHEM_ATOM_UDEF_STEREO_COUNT>
1

> <PUBCHEM_BOND_DEF_STEREO_COUNT>
0

> <PUBCHEM_BOND_UDEF_STEREO_COUNT>
0

> <PUBCHEM_ISOTOPIC_ATOM_COUNT>
0

> <PUBCHEM_COMPONENT_COUNT>
1

> <PUBCHEM_CACTVS_TAUTO_COUNT>
1

> <PUBCHEM_COORDINATE_TYPE>
1
5
255

> <PUBCHEM_BONDANNOTATIONS>
7  1  3
11  12  8
11  14  8
12  15  8
14  17  8
15  18  8
17  18  8
19  20  8
19  21  8
20  22  8
21  23  8
22  24  8
23  24  8

$$$$
