137660741
  -OEChem-09292322392D

 68 72  0     0  0  0  0  0  0999 V2000
    4.6660   -4.1657    0.0000 S   0  0  0  0  0  0  0  0  0  0  0  0
    2.9340    6.8343    0.0000 F   0  0  0  0  0  0  0  0  0  0  0  0
    4.3000    7.2003    0.0000 F   0  0  0  0  0  0  0  0  0  0  0  0
    3.3000    5.4683    0.0000 F   0  0  0  0  0  0  0  0  0  0  0  0
    5.6660   -4.1657    0.0000 O   0  0  0  0  0  0  0  0  0  0  0  0
    3.6660   -4.1657    0.0000 O   0  0  0  0  0  0  0  0  0  0  0  0
    4.6660   -3.1657    0.0000 N   0  0  0  0  0  0  0  0  0  0  0  0
    5.5321    1.3343    0.0000 N   0  0  0  0  0  0  0  0  0  0  0  0
    5.5321    3.3343    0.0000 N   0  0  0  0  0  0  0  0  0  0  0  0
    5.5321   -6.6657    0.0000 N   0  0  0  0  0  0  0  0  0  0  0  0
    4.6660   -1.1657    0.0000 C   0  0  0  0  0  0  0  0  0  0  0  0
    5.5321   -1.6657    0.0000 C   0  0  0  0  0  0  0  0  0  0  0  0
    3.8000   -1.6657    0.0000 C   0  0  0  0  0  0  0  0  0  0  0  0
    4.6660   -0.1657    0.0000 C   0  0  0  0  0  0  0  0  0  0  0  0
    5.5321   -2.6657    0.0000 C   0  0  0  0  0  0  0  0  0  0  0  0
    3.8000   -2.6657    0.0000 C   0  0  0  0  0  0  0  0  0  0  0  0
    5.5321    0.3343    0.0000 C   0  0  0  0  0  0  0  0  0  0  0  0
    6.3981    1.8343    0.0000 C   0  0  0  0  0  0  0  0  0  0  0  0
    4.6660    1.8343    0.0000 C   0  0  0  0  0  0  0  0  0  0  0  0
    6.3981    2.8343    0.0000 C   0  0  0  0  0  0  0  0  0  0  0  0
    4.6660    2.8343    0.0000 C   0  0  0  0  0  0  0  0  0  0  0  0
    4.6660   -5.1657    0.0000 C   0  0  0  0  0  0  0  0  0  0  0  0
    5.5321    4.3343    0.0000 C   0  0  0  0  0  0  0  0  0  0  0  0
    3.8000   -5.6657    0.0000 C   0  0  0  0  0  0  0  0  0  0  0  0
    5.5321   -5.6657    0.0000 C   0  0  0  0  0  0  0  0  0  0  0  0
    4.6660    4.8343    0.0000 C   0  0  0  0  0  0  0  0  0  0  0  0
    6.3981    4.8343    0.0000 C   0  0  0  0  0  0  0  0  0  0  0  0
    3.8000   -6.6657    0.0000 C   0  0  0  0  0  0  0  0  0  0  0  0
    2.9061   -5.1310    0.0000 C   0  0  0  0  0  0  0  0  0  0  0  0
    4.6660    5.8343    0.0000 C   0  0  0  0  0  0  0  0  0  0  0  0
    6.3981    5.8343    0.0000 C   0  0  0  0  0  0  0  0  0  0  0  0
    4.6660   -7.1657    0.0000 C   0  0  0  0  0  0  0  0  0  0  0  0
    5.5321    6.3343    0.0000 C   0  0  0  0  0  0  0  0  0  0  0  0
    2.9061   -7.2003    0.0000 C   0  0  0  0  0  0  0  0  0  0  0  0
    2.0000   -5.6449    0.0000 C   0  0  0  0  0  0  0  0  0  0  0  0
    3.8000    6.3343    0.0000 C   0  0  0  0  0  0  0  0  0  0  0  0
    2.0000   -6.6865    0.0000 C   0  0  0  0  0  0  0  0  0  0  0  0
    5.2030   -0.8557    0.0000 H   0  0  0  0  0  0  0  0  0  0  0  0
    6.1426   -1.7733    0.0000 H   0  0  0  0  0  0  0  0  0  0  0  0
    5.7441   -1.0831    0.0000 H   0  0  0  0  0  0  0  0  0  0  0  0
    3.5880   -1.0831    0.0000 H   0  0  0  0  0  0  0  0  0  0  0  0
    3.1894   -1.7733    0.0000 H   0  0  0  0  0  0  0  0  0  0  0  0
    4.4540    0.4169    0.0000 H   0  0  0  0  0  0  0  0  0  0  0  0
    4.0555   -0.2733    0.0000 H   0  0  0  0  0  0  0  0  0  0  0  0
    5.7441   -3.2483    0.0000 H   0  0  0  0  0  0  0  0  0  0  0  0
    6.1426   -2.5580    0.0000 H   0  0  0  0  0  0  0  0  0  0  0  0
    3.1894   -2.5580    0.0000 H   0  0  0  0  0  0  0  0  0  0  0  0
    3.5880   -3.2483    0.0000 H   0  0  0  0  0  0  0  0  0  0  0  0
    5.7441   -0.2483    0.0000 H   0  0  0  0  0  0  0  0  0  0  0  0
    6.1426    0.4420    0.0000 H   0  0  0  0  0  0  0  0  0  0  0  0
    6.6101    1.2517    0.0000 H   0  0  0  0  0  0  0  0  0  0  0  0
    7.0087    1.9420    0.0000 H   0  0  0  0  0  0  0  0  0  0  0  0
    4.0555    1.9420    0.0000 H   0  0  0  0  0  0  0  0  0  0  0  0
    4.4540    1.2517    0.0000 H   0  0  0  0  0  0  0  0  0  0  0  0
    7.0087    2.7267    0.0000 H   0  0  0  0  0  0  0  0  0  0  0  0
    6.6101    3.4169    0.0000 H   0  0  0  0  0  0  0  0  0  0  0  0
    4.4540    3.4169    0.0000 H   0  0  0  0  0  0  0  0  0  0  0  0
    4.0555    2.7267    0.0000 H   0  0  0  0  0  0  0  0  0  0  0  0
    6.0690   -5.3557    0.0000 H   0  0  0  0  0  0  0  0  0  0  0  0
    4.1291    4.5243    0.0000 H   0  0  0  0  0  0  0  0  0  0  0  0
    6.9350    4.5243    0.0000 H   0  0  0  0  0  0  0  0  0  0  0  0
    2.9132   -4.5111    0.0000 H   0  0  0  0  0  0  0  0  0  0  0  0
    6.9350    6.1443    0.0000 H   0  0  0  0  0  0  0  0  0  0  0  0
    4.6660   -7.7857    0.0000 H   0  0  0  0  0  0  0  0  0  0  0  0
    5.5321    6.9543    0.0000 H   0  0  0  0  0  0  0  0  0  0  0  0
    2.9132   -7.8203    0.0000 H   0  0  0  0  0  0  0  0  0  0  0  0
    1.4643   -5.3328    0.0000 H   0  0  0  0  0  0  0  0  0  0  0  0
    1.4643   -6.9986    0.0000 H   0  0  0  0  0  0  0  0  0  0  0  0
  1  5  2  0  0  0  0
  1  6  2  0  0  0  0
  1  7  1  0  0  0  0
  1 22  1  0  0  0  0
  2 36  1  0  0  0  0
  3 36  1  0  0  0  0
  4 36  1  0  0  0  0
  7 15  1  0  0  0  0
  7 16  1  0  0  0  0
  8 17  1  0  0  0  0
  8 18  1  0  0  0  0
  8 19  1  0  0  0  0
  9 20  1  0  0  0  0
  9 21  1  0  0  0  0
  9 23  1  0  0  0  0
 10 25  1  0  0  0  0
 10 32  2  0  0  0  0
 11 12  1  0  0  0  0
 11 13  1  0  0  0  0
 11 14  1  0  0  0  0
 11 38  1  0  0  0  0
 12 15  1  0  0  0  0
 12 39  1  0  0  0  0
 12 40  1  0  0  0  0
 13 16  1  0  0  0  0
 13 41  1  0  0  0  0
 13 42  1  0  0  0  0
 14 17  1  0  0  0  0
 14 43  1  0  0  0  0
 14 44  1  0  0  0  0
 15 45  1  0  0  0  0
 15 46  1  0  0  0  0
 16 47  1  0  0  0  0
 16 48  1  0  0  0  0
 17 49  1  0  0  0  0
 17 50  1  0  0  0  0
 18 20  1  0  0  0  0
 18 51  1  0  0  0  0
 18 52  1  0  0  0  0
 19 21  1  0  0  0  0
 19 53  1  0  0  0  0
 19 54  1  0  0  0  0
 20 55  1  0  0  0  0
 20 56  1  0  0  0  0
 21 57  1  0  0  0  0
 21 58  1  0  0  0  0
 22 24  1  0  0  0  0
 22 25  2  0  0  0  0
 23 26  1  0  0  0  0
 23 27  2  0  0  0  0
 24 28  1  0  0  0  0
 24 29  2  0  0  0  0
 25 59  1  0  0  0  0
 26 30  2  0  0  0  0
 26 60  1  0  0  0  0
 27 31  1  0  0  0  0
 27 61  1  0  0  0  0
 28 32  1  0  0  0  0
 28 34  2  0  0  0  0
 29 35  1  0  0  0  0
 29 62  1  0  0  0  0
 30 33  1  0  0  0  0
 30 36  1  0  0  0  0
 31 33  2  0  0  0  0
 31 63  1  0  0  0  0
 32 64  1  0  0  0  0
 33 65  1  0  0  0  0
 34 37  1  0  0  0  0
 34 66  1  0  0  0  0
 35 37  2  0  0  0  0
 35 67  1  0  0  0  0
 37 68  1  0  0  0  0
M  END
> <PUBCHEM_COMPOUND_CID>
137660741

> <PUBCHEM_COMPOUND_CANONICALIZED>
1

> <PUBCHEM_CACTVS_COMPLEXITY>
836

> <PUBCHEM_CACTVS_HBOND_ACCEPTOR>
9

> <PUBCHEM_CACTVS_HBOND_DONOR>
0

> <PUBCHEM_CACTVS_ROTATABLE_BOND>
6

> <PUBCHEM_CACTVS_SUBSKEYS>
AAADceB7sYBAAAAAAAAAAAAAAAAAAAAAAAA8eLECAAAAAACx9AAAHQQAQAAADQjBWhQ8wdMIEAKgAjRnRHDCgDAxAiAI2DwoZJgIYOLAkZGUIAhggADIyAcQgIAOgAAAQAAQAAAAAACAACAAAAAAAAAAAA==

> <PUBCHEM_IUPAC_OPENEYE_NAME>
4-[[4-[2-[4-[3-(trifluoromethyl)phenyl]piperazin-1-yl]ethyl]-1-piperidyl]sulfonyl]isoquinoline

> <PUBCHEM_IUPAC_CAS_NAME>
4-[[4-[2-[4-[3-(trifluoromethyl)phenyl]-1-piperazinyl]ethyl]-1-piperidinyl]sulfonyl]isoquinoline

> <PUBCHEM_IUPAC_NAME_MARKUP>
4-[4-[2-[4-[3-(trifluoromethyl)phenyl]piperazin-1-yl]ethyl]piperidin-1-yl]sulfonylisoquinoline

> <PUBCHEM_IUPAC_NAME>
4-[4-[2-[4-[3-(trifluoromethyl)phenyl]piperazin-1-yl]ethyl]piperidin-1-yl]sulfonylisoquinoline

> <PUBCHEM_IUPAC_SYSTEMATIC_NAME>
4-[4-[2-[4-[3-(trifluoromethyl)phenyl]piperazin-1-yl]ethyl]piperidin-1-yl]sulfonylisoquinoline

> <PUBCHEM_IUPAC_TRADITIONAL_NAME>
4-[4-[2-[4-[3-(trifluoromethyl)phenyl]piperazino]ethyl]piperidino]sulfonylisoquinoline

> <PUBCHEM_IUPAC_INCHI>
InChI=1S/C27H31F3N4O2S/c28-27(29,30)23-5-3-6-24(18-23)33-16-14-32(15-17-33)11-8-21-9-12-34(13-10-21)37(35,36)26-20-31-19-22-4-1-2-7-25(22)26/h1-7,18-21H,8-17H2

> <PUBCHEM_IUPAC_INCHIKEY>
MPLFGWFRVWQFNU-UHFFFAOYSA-N

> <PUBCHEM_XLOGP3_AA>
4.9

> <PUBCHEM_EXACT_MASS>
532.21198190

> <PUBCHEM_MOLECULAR_FORMULA>
C27H31F3N4O2S

> <PUBCHEM_MOLECULAR_WEIGHT>
532.6

> <PUBCHEM_OPENEYE_CAN_SMILES>
C1CN(CCC1CCN2CCN(CC2)C3=CC=CC(=C3)C(F)(F)F)S(=O)(=O)C4=CN=CC5=CC=CC=C54

> <PUBCHEM_OPENEYE_ISO_SMILES>
C1CN(CCC1CCN2CCN(CC2)C3=CC=CC(=C3)C(F)(F)F)S(=O)(=O)C4=CN=CC5=CC=CC=C54

> <PUBCHEM_CACTVS_TPSA>
65.1

> <PUBCHEM_MONOISOTOPIC_WEIGHT>
532.21198190

> <PUBCHEM_TOTAL_CHARGE>
0

> <PUBCHEM_HEAVY_ATOM_COUNT>
37

> <PUBCHEM_ATOM_DEF_STEREO_COUNT>
0

> <PUBCHEM_ATOM_UDEF_STEREO_COUNT>
0

> <PUBCHEM_BOND_DEF_STEREO_COUNT>
0

> <PUBCHEM_BOND_UDEF_STEREO_COUNT>
0

> <PUBCHEM_ISOTOPIC_ATOM_COUNT>
0

> <PUBCHEM_COMPONENT_COUNT>
1

> <PUBCHEM_CACTVS_TAUTO_COUNT>
-1

> <PUBCHEM_COORDINATE_TYPE>
1
5
255

> <PUBCHEM_BONDANNOTATIONS>
10  25  8
10  32  8
22  24  8
22  25  8
23  26  8
23  27  8
24  28  8
24  29  8
26  30  8
27  31  8
28  32  8
28  34  8
29  35  8
30  33  8
31  33  8
34  37  8
35  37  8

$$$$
