17755866
  -OEChem-09292322252D

 44 46  0     1  0  0  0  0  0999 V2000
    8.1681    2.2922    0.0000 O   0  0  0  0  0  0  0  0  0  0  0  0
    4.2841   -2.1189    0.0000 N   0  0  3  0  0  0  0  0  0  0  0  0
    6.1160   -1.8777    0.0000 C   0  0  0  0  0  0  0  0  0  0  0  0
    5.2500   -2.3777    0.0000 C   0  0  0  0  0  0  0  0  0  0  0  0
    6.3821   -0.7529    0.0000 C   0  0  0  0  0  0  0  0  0  0  0  0
    3.7841   -1.2529    0.0000 C   0  0  0  0  0  0  0  0  0  0  0  0
    2.9180   -0.7529    0.0000 C   0  0  0  0  0  0  0  0  0  0  0  0
    6.3821    0.2471    0.0000 C   0  0  0  0  0  0  0  0  0  0  0  0
    4.6501    0.2471    0.0000 C   0  0  0  0  0  0  0  0  0  0  0  0
    2.9180    0.2471    0.0000 C   0  0  0  0  0  0  0  0  0  0  0  0
    5.5161    0.7471    0.0000 C   0  0  0  0  0  0  0  0  0  0  0  0
    3.7841    0.7471    0.0000 C   0  0  0  0  0  0  0  0  0  0  0  0
    3.6753   -2.9122    0.0000 C   0  0  0  0  0  0  0  0  0  0  0  0
    7.2921    0.7540    0.0000 C   0  0  0  0  0  0  0  0  0  0  0  0
    5.5000    1.7886    0.0000 C   0  0  0  0  0  0  0  0  0  0  0  0
    2.0080    0.7540    0.0000 C   0  0  0  0  0  0  0  0  0  0  0  0
    3.8001    1.7886    0.0000 C   0  0  0  0  0  0  0  0  0  0  0  0
    7.3002    1.7956    0.0000 C   0  0  0  0  0  0  0  0  0  0  0  0
    6.3981    2.3164    0.0000 C   0  0  0  0  0  0  0  0  0  0  0  0
    2.0000    1.7956    0.0000 C   0  0  0  0  0  0  0  0  0  0  0  0
    2.9021    2.3164    0.0000 C   0  0  0  0  0  0  0  0  0  0  0  0
    6.2824   -2.4750    0.0000 H   0  0  0  0  0  0  0  0  0  0  0  0
    6.7359   -1.8655    0.0000 H   0  0  0  0  0  0  0  0  0  0  0  0
    4.9400   -2.9146    0.0000 H   0  0  0  0  0  0  0  0  0  0  0  0
    5.6884   -2.8161    0.0000 H   0  0  0  0  0  0  0  0  0  0  0  0
    6.8648   -1.1420    0.0000 H   0  0  0  0  0  0  0  0  0  0  0  0
    5.7663   -0.6810    0.0000 H   0  0  0  0  0  0  0  0  0  0  0  0
    4.3946   -1.1452    0.0000 H   0  0  0  0  0  0  0  0  0  0  0  0
    3.3456   -1.6913    0.0000 H   0  0  0  0  0  0  0  0  0  0  0  0
    2.3074   -0.6452    0.0000 H   0  0  0  0  0  0  0  0  0  0  0  0
    2.7060   -1.3355    0.0000 H   0  0  0  0  0  0  0  0  0  0  0  0
    4.2516   -0.2278    0.0000 H   0  0  0  0  0  0  0  0  0  0  0  0
    5.0486   -0.2278    0.0000 H   0  0  0  0  0  0  0  0  0  0  0  0
    3.1834   -2.5348    0.0000 H   0  0  0  0  0  0  0  0  0  0  0  0
    3.2979   -3.4041    0.0000 H   0  0  0  0  0  0  0  0  0  0  0  0
    4.1672   -3.2897    0.0000 H   0  0  0  0  0  0  0  0  0  0  0  0
    7.8254    0.4378    0.0000 H   0  0  0  0  0  0  0  0  0  0  0  0
    4.9596    2.0924    0.0000 H   0  0  0  0  0  0  0  0  0  0  0  0
    1.4747    0.4378    0.0000 H   0  0  0  0  0  0  0  0  0  0  0  0
    4.3406    2.0924    0.0000 H   0  0  0  0  0  0  0  0  0  0  0  0
    6.3957    2.9364    0.0000 H   0  0  0  0  0  0  0  0  0  0  0  0
    1.4619    2.1035    0.0000 H   0  0  0  0  0  0  0  0  0  0  0  0
    2.9045    2.9364    0.0000 H   0  0  0  0  0  0  0  0  0  0  0  0
    8.1705    2.9122    0.0000 H   0  0  0  0  0  0  0  0  0  0  0  0
  1 18  1  0  0  0  0
  1 44  1  0  0  0  0
  2  4  1  0  0  0  0
  2  6  1  0  0  0  0
  2 13  1  0  0  0  0
  3  4  1  0  0  0  0
  3  5  1  0  0  0  0
  3 22  1  0  0  0  0
  3 23  1  0  0  0  0
  4 24  1  0  0  0  0
  4 25  1  0  0  0  0
  5  8  1  0  0  0  0
  5 26  1  0  0  0  0
  5 27  1  0  0  0  0
  6  7  1  0  0  0  0
  6 28  1  0  0  0  0
  6 29  1  0  0  0  0
  7 10  1  0  0  0  0
  7 30  1  0  0  0  0
  7 31  1  0  0  0  0
  8 11  2  0  0  0  0
  8 14  1  0  0  0  0
  9 11  1  0  0  0  0
  9 12  1  0  0  0  0
  9 32  1  0  0  0  0
  9 33  1  0  0  0  0
 10 12  1  0  0  0  0
 10 16  2  0  0  0  0
 11 15  1  0  0  0  0
 12 17  2  0  0  0  0
 13 34  1  0  0  0  0
 13 35  1  0  0  0  0
 13 36  1  0  0  0  0
 14 18  2  0  0  0  0
 14 37  1  0  0  0  0
 15 19  2  0  0  0  0
 15 38  1  0  0  0  0
 16 20  1  0  0  0  0
 16 39  1  0  0  0  0
 17 21  1  0  0  0  0
 17 40  1  0  0  0  0
 18 19  1  0  0  0  0
 19 41  1  0  0  0  0
 20 21  2  0  0  0  0
 20 42  1  0  0  0  0
 21 43  1  0  0  0  0
M  END
> <PUBCHEM_COMPOUND_CID>
17755866

> <PUBCHEM_COMPOUND_CANONICALIZED>
1

> <PUBCHEM_CACTVS_COMPLEXITY>
319

> <PUBCHEM_CACTVS_HBOND_ACCEPTOR>
2

> <PUBCHEM_CACTVS_HBOND_DONOR>
1

> <PUBCHEM_CACTVS_ROTATABLE_BOND>
0

> <PUBCHEM_CACTVS_SUBSKEYS>
AAADceB6IAAAAAAAAAAAAAAAAAAAAAAAAAAwYAAAAAAAAAABQAAAHgAACAAADATBmAQyBoMAAgCAAiBCAAACAAAgIAAIiAAOCIgIJiKCkROEcAAkwBGImAeQwPAOoAABAAAQAABAAAIAACAAAAAAAAAAAA==

> <PUBCHEM_IUPAC_OPENEYE_NAME>
11-methyl-11-azatricyclo[13.4.0.03,8]nonadeca-1(15),3,5,7,16,18-hexaen-17-ol

> <PUBCHEM_IUPAC_CAS_NAME>
11-methyl-11-azatricyclo[13.4.0.03,8]nonadeca-1(15),3,5,7,16,18-hexaen-17-ol

> <PUBCHEM_IUPAC_NAME_MARKUP>
11-methyl-11-azatricyclo[13.4.0.0<SUP>3,8</SUP>]nonadeca-1(15),3,5,7,16,18-hexaen-17-ol

> <PUBCHEM_IUPAC_NAME>
11-methyl-11-azatricyclo[13.4.0.03,8]nonadeca-1(15),3,5,7,16,18-hexaen-17-ol

> <PUBCHEM_IUPAC_SYSTEMATIC_NAME>
11-methyl-11-azatricyclo[13.4.0.03,8]nonadeca-1(15),3,5,7,16,18-hexaen-17-ol

> <PUBCHEM_IUPAC_TRADITIONAL_NAME>
11-methyl-11-azatricyclo[13.4.0.03,8]nonadeca-1(15),3,5,7,16,18-hexaen-17-ol

> <PUBCHEM_IUPAC_INCHI>
InChI=1S/C19H23NO/c1-20-11-4-7-17-14-19(21)9-8-18(17)13-16-6-3-2-5-15(16)10-12-20/h2-3,5-6,8-9,14,21H,4,7,10-13H2,1H3

> <PUBCHEM_IUPAC_INCHIKEY>
GSJUQPJCKBBTAO-UHFFFAOYSA-N

> <PUBCHEM_XLOGP3_AA>
4.2

> <PUBCHEM_EXACT_MASS>
281.177964357

> <PUBCHEM_MOLECULAR_FORMULA>
C19H23NO

> <PUBCHEM_MOLECULAR_WEIGHT>
281.4

> <PUBCHEM_OPENEYE_CAN_SMILES>
CN1CCCC2=C(CC3=CC=CC=C3CC1)C=CC(=C2)O

> <PUBCHEM_OPENEYE_ISO_SMILES>
CN1CCCC2=C(CC3=CC=CC=C3CC1)C=CC(=C2)O

> <PUBCHEM_CACTVS_TPSA>
23.5

> <PUBCHEM_MONOISOTOPIC_WEIGHT>
281.177964357

> <PUBCHEM_TOTAL_CHARGE>
0

> <PUBCHEM_HEAVY_ATOM_COUNT>
21

> <PUBCHEM_ATOM_DEF_STEREO_COUNT>
0

> <PUBCHEM_ATOM_UDEF_STEREO_COUNT>
0

> <PUBCHEM_BOND_DEF_STEREO_COUNT>
0

> <PUBCHEM_BOND_UDEF_STEREO_COUNT>
0

> <PUBCHEM_ISOTOPIC_ATOM_COUNT>
0

> <PUBCHEM_COMPONENT_COUNT>
1

> <PUBCHEM_CACTVS_TAUTO_COUNT>
-1

> <PUBCHEM_COORDINATE_TYPE>
1
5
255

> <PUBCHEM_BONDANNOTATIONS>
10  12  8
10  16  8
11  15  8
12  17  8
14  18  8
15  19  8
16  20  8
17  21  8
18  19  8
20  21  8
8  11  8
8  14  8

$$$$
