44438209
  -OEChem-09292321592D

 64 67  0     0  0  0  0  0  0999 V2000
    8.8750   -2.2319    0.0000 O   0  0  0  0  0  0  0  0  0  0  0  0
   10.9017    0.7501    0.0000 O   0  0  0  0  0  0  0  0  0  0  0  0
    5.9674   -2.3337    0.0000 N   0  0  0  0  0  0  0  0  0  0  0  0
    4.6783   -5.0999    0.0000 N   0  0  0  0  0  0  0  0  0  0  0  0
    7.9244   -1.9212    0.0000 C   0  0  0  0  0  0  0  0  0  0  0  0
    7.2566   -1.1769    0.0000 C   0  0  0  0  0  0  0  0  0  0  0  0
    7.6138   -2.8718    0.0000 C   0  0  0  0  0  0  0  0  0  0  0  0
    6.2781   -1.3832    0.0000 C   0  0  0  0  0  0  0  0  0  0  0  0
    6.6353   -3.0780    0.0000 C   0  0  0  0  0  0  0  0  0  0  0  0
    8.6688   -1.2534    0.0000 C   0  0  0  0  0  0  0  0  0  0  0  0
    4.9889   -2.5399    0.0000 C   0  0  0  0  0  0  0  0  0  0  0  0
    4.6783   -3.4904    0.0000 C   0  0  0  0  0  0  0  0  0  0  0  0
    8.4625   -0.2749    0.0000 C   0  0  0  0  0  0  0  0  0  0  0  0
    9.6193   -1.5640    0.0000 C   0  0  0  0  0  0  0  0  0  0  0  0
    3.7320   -3.7951    0.0000 C   0  0  0  0  0  0  0  0  0  0  0  0
    5.2619   -4.2951    0.0000 C   0  0  0  0  0  0  0  0  0  0  0  0
    9.2068    0.3930    0.0000 C   0  0  0  0  0  0  0  0  0  0  0  0
   10.3636   -0.8962    0.0000 C   0  0  0  0  0  0  0  0  0  0  0  0
    3.7320   -4.7951    0.0000 C   0  0  0  0  0  0  0  0  0  0  0  0
   10.1574    0.0823    0.0000 C   0  0  0  0  0  0  0  0  0  0  0  0
    2.8660   -3.2951    0.0000 C   0  0  0  0  0  0  0  0  0  0  0  0
    2.8660   -5.2951    0.0000 C   0  0  0  0  0  0  0  0  0  0  0  0
   10.6954    1.7286    0.0000 C   0  0  0  0  0  0  0  0  0  0  0  0
    2.0000   -3.7951    0.0000 C   0  0  0  0  0  0  0  0  0  0  0  0
   11.4397    2.3965    0.0000 C   0  0  0  0  0  0  0  0  0  0  0  0
    2.0000   -4.7951    0.0000 C   0  0  0  0  0  0  0  0  0  0  0  0
   11.2335    3.3750    0.0000 C   0  0  0  0  0  0  0  0  0  0  0  0
   11.9778    4.0428    0.0000 C   0  0  0  0  0  0  0  0  0  0  0  0
   11.7716    5.0214    0.0000 C   0  0  0  0  0  0  0  0  0  0  0  0
   12.5159    5.6892    0.0000 C   0  0  0  0  0  0  0  0  0  0  0  0
    7.7830   -0.8493    0.0000 H   0  0  0  0  0  0  0  0  0  0  0  0
    7.0254   -0.6017    0.0000 H   0  0  0  0  0  0  0  0  0  0  0  0
    7.6344   -3.4914    0.0000 H   0  0  0  0  0  0  0  0  0  0  0  0
    8.2276   -2.9591    0.0000 H   0  0  0  0  0  0  0  0  0  0  0  0
    6.2575   -0.7635    0.0000 H   0  0  0  0  0  0  0  0  0  0  0  0
    5.6643   -1.2958    0.0000 H   0  0  0  0  0  0  0  0  0  0  0  0
    6.1089   -3.4056    0.0000 H   0  0  0  0  0  0  0  0  0  0  0  0
    6.8665   -3.6532    0.0000 H   0  0  0  0  0  0  0  0  0  0  0  0
    4.9684   -1.9202    0.0000 H   0  0  0  0  0  0  0  0  0  0  0  0
    4.3751   -2.4525    0.0000 H   0  0  0  0  0  0  0  0  0  0  0  0
    9.0028   -2.8386    0.0000 H   0  0  0  0  0  0  0  0  0  0  0  0
    7.8732   -0.0823    0.0000 H   0  0  0  0  0  0  0  0  0  0  0  0
    9.7471   -2.1707    0.0000 H   0  0  0  0  0  0  0  0  0  0  0  0
    5.8819   -4.2951    0.0000 H   0  0  0  0  0  0  0  0  0  0  0  0
    9.0790    0.9996    0.0000 H   0  0  0  0  0  0  0  0  0  0  0  0
   10.9529   -1.0888    0.0000 H   0  0  0  0  0  0  0  0  0  0  0  0
    4.8709   -5.6892    0.0000 H   0  0  0  0  0  0  0  0  0  0  0  0
    2.8660   -2.6751    0.0000 H   0  0  0  0  0  0  0  0  0  0  0  0
    2.8660   -5.9151    0.0000 H   0  0  0  0  0  0  0  0  0  0  0  0
   10.3678    2.2550    0.0000 H   0  0  0  0  0  0  0  0  0  0  0  0
   10.1202    1.4974    0.0000 H   0  0  0  0  0  0  0  0  0  0  0  0
   11.7674    1.8701    0.0000 H   0  0  0  0  0  0  0  0  0  0  0  0
   12.0150    2.6278    0.0000 H   0  0  0  0  0  0  0  0  0  0  0  0
    1.4631   -3.4851    0.0000 H   0  0  0  0  0  0  0  0  0  0  0  0
   10.9059    3.9014    0.0000 H   0  0  0  0  0  0  0  0  0  0  0  0
   10.6583    3.1437    0.0000 H   0  0  0  0  0  0  0  0  0  0  0  0
    1.4631   -5.1051    0.0000 H   0  0  0  0  0  0  0  0  0  0  0  0
   12.3055    3.5165    0.0000 H   0  0  0  0  0  0  0  0  0  0  0  0
   12.5531    4.2741    0.0000 H   0  0  0  0  0  0  0  0  0  0  0  0
   11.4440    5.5477    0.0000 H   0  0  0  0  0  0  0  0  0  0  0  0
   11.1963    4.7901    0.0000 H   0  0  0  0  0  0  0  0  0  0  0  0
   12.9300    5.2277    0.0000 H   0  0  0  0  0  0  0  0  0  0  0  0
   12.9774    6.1033    0.0000 H   0  0  0  0  0  0  0  0  0  0  0  0
   12.1018    6.1507    0.0000 H   0  0  0  0  0  0  0  0  0  0  0  0
  1  5  1  0  0  0  0
  1 41  1  0  0  0  0
  2 20  1  0  0  0  0
  2 23  1  0  0  0  0
  3  8  1  0  0  0  0
  3  9  1  0  0  0  0
  3 11  1  0  0  0  0
  4 16  1  0  0  0  0
  4 19  1  0  0  0  0
  4 47  1  0  0  0  0
  5  6  1  0  0  0  0
  5  7  1  0  0  0  0
  5 10  1  0  0  0  0
  6  8  1  0  0  0  0
  6 31  1  0  0  0  0
  6 32  1  0  0  0  0
  7  9  1  0  0  0  0
  7 33  1  0  0  0  0
  7 34  1  0  0  0  0
  8 35  1  0  0  0  0
  8 36  1  0  0  0  0
  9 37  1  0  0  0  0
  9 38  1  0  0  0  0
 10 13  2  0  0  0  0
 10 14  1  0  0  0  0
 11 12  1  0  0  0  0
 11 39  1  0  0  0  0
 11 40  1  0  0  0  0
 12 15  1  0  0  0  0
 12 16  2  0  0  0  0
 13 17  1  0  0  0  0
 13 42  1  0  0  0  0
 14 18  2  0  0  0  0
 14 43  1  0  0  0  0
 15 19  1  0  0  0  0
 15 21  2  0  0  0  0
 16 44  1  0  0  0  0
 17 20  2  0  0  0  0
 17 45  1  0  0  0  0
 18 20  1  0  0  0  0
 18 46  1  0  0  0  0
 19 22  2  0  0  0  0
 21 24  1  0  0  0  0
 21 48  1  0  0  0  0
 22 26  1  0  0  0  0
 22 49  1  0  0  0  0
 23 25  1  0  0  0  0
 23 50  1  0  0  0  0
 23 51  1  0  0  0  0
 24 26  2  0  0  0  0
 24 54  1  0  0  0  0
 25 27  1  0  0  0  0
 25 52  1  0  0  0  0
 25 53  1  0  0  0  0
 26 57  1  0  0  0  0
 27 28  1  0  0  0  0
 27 55  1  0  0  0  0
 27 56  1  0  0  0  0
 28 29  1  0  0  0  0
 28 58  1  0  0  0  0
 28 59  1  0  0  0  0
 29 30  1  0  0  0  0
 29 60  1  0  0  0  0
 29 61  1  0  0  0  0
 30 62  1  0  0  0  0
 30 63  1  0  0  0  0
 30 64  1  0  0  0  0
M  END
> <PUBCHEM_COMPOUND_CID>
44438209

> <PUBCHEM_COMPOUND_CANONICALIZED>
1

> <PUBCHEM_CACTVS_COMPLEXITY>
497

> <PUBCHEM_CACTVS_HBOND_ACCEPTOR>
3

> <PUBCHEM_CACTVS_HBOND_DONOR>
2

> <PUBCHEM_CACTVS_ROTATABLE_BOND>
9

> <PUBCHEM_CACTVS_SUBSKEYS>
AAADcfB7MAAAAAAAAAAAAAAAAAAAAWAAAAA8YIAAAAAAAFgB9AAAHgAQCAAADEzhngY+xvPJlgCgAzRnRACCiCAxIiAI2aA+bJgMJuLE8ZuGeCjm0BHI+AeQ4PwOoAAAAAACAABAAAAAAAQAAAAAAAAAAA==

> <PUBCHEM_IUPAC_OPENEYE_NAME>
4-(4-hexoxyphenyl)-1-(1H-indol-3-ylmethyl)piperidin-4-ol

> <PUBCHEM_IUPAC_CAS_NAME>
4-(4-hexoxyphenyl)-1-(1H-indol-3-ylmethyl)-4-piperidinol

> <PUBCHEM_IUPAC_NAME_MARKUP>
4-(4-hexoxyphenyl)-1-(1<I>H</I>-indol-3-ylmethyl)piperidin-4-ol

> <PUBCHEM_IUPAC_NAME>
4-(4-hexoxyphenyl)-1-(1H-indol-3-ylmethyl)piperidin-4-ol

> <PUBCHEM_IUPAC_SYSTEMATIC_NAME>
4-(4-hexoxyphenyl)-1-(1H-indol-3-ylmethyl)piperidin-4-ol

> <PUBCHEM_IUPAC_TRADITIONAL_NAME>
4-(4-hexoxyphenyl)-1-(1H-indol-3-ylmethyl)piperidin-4-ol

> <PUBCHEM_IUPAC_INCHI>
InChI=1S/C26H34N2O2/c1-2-3-4-7-18-30-23-12-10-22(11-13-23)26(29)14-16-28(17-15-26)20-21-19-27-25-9-6-5-8-24(21)25/h5-6,8-13,19,27,29H,2-4,7,14-18,20H2,1H3

> <PUBCHEM_IUPAC_INCHIKEY>
FISUUARMPJZKMS-UHFFFAOYSA-N

> <PUBCHEM_XLOGP3_AA>
5.3

> <PUBCHEM_EXACT_MASS>
406.262028332

> <PUBCHEM_MOLECULAR_FORMULA>
C26H34N2O2

> <PUBCHEM_MOLECULAR_WEIGHT>
406.6

> <PUBCHEM_OPENEYE_CAN_SMILES>
CCCCCCOC1=CC=C(C=C1)C2(CCN(CC2)CC3=CNC4=CC=CC=C43)O

> <PUBCHEM_OPENEYE_ISO_SMILES>
CCCCCCOC1=CC=C(C=C1)C2(CCN(CC2)CC3=CNC4=CC=CC=C43)O

> <PUBCHEM_CACTVS_TPSA>
48.5

> <PUBCHEM_MONOISOTOPIC_WEIGHT>
406.262028332

> <PUBCHEM_TOTAL_CHARGE>
0

> <PUBCHEM_HEAVY_ATOM_COUNT>
30

> <PUBCHEM_ATOM_DEF_STEREO_COUNT>
0

> <PUBCHEM_ATOM_UDEF_STEREO_COUNT>
0

> <PUBCHEM_BOND_DEF_STEREO_COUNT>
0

> <PUBCHEM_BOND_UDEF_STEREO_COUNT>
0

> <PUBCHEM_ISOTOPIC_ATOM_COUNT>
0

> <PUBCHEM_COMPONENT_COUNT>
1

> <PUBCHEM_CACTVS_TAUTO_COUNT>
-1

> <PUBCHEM_COORDINATE_TYPE>
1
5
255

> <PUBCHEM_BONDANNOTATIONS>
10  13  8
10  14  8
12  15  8
12  16  8
13  17  8
14  18  8
15  19  8
15  21  8
17  20  8
18  20  8
19  22  8
21  24  8
22  26  8
24  26  8
4  16  8
4  19  8

$$$$
