44447061
  -OEChem-09292322262D

 58 62  0     1  0  0  0  0  0999 V2000
    3.7899   -3.7802    0.0000 S   0  0  0  0  0  0  0  0  0  0  0  0
   14.6497    3.7802    0.0000 F   0  0  0  0  0  0  0  0  0  0  0  0
   15.2896    2.5190    0.0000 F   0  0  0  0  0  0  0  0  0  0  0  0
   13.3885    3.1404    0.0000 F   0  0  0  0  0  0  0  0  0  0  0  0
   14.6962    1.1349    0.0000 O   0  0  0  0  0  0  0  0  0  0  0  0
    7.4629   -1.0823    0.0000 N   0  0  0  0  0  0  0  0  0  0  0  0
    5.7308   -2.0823    0.0000 N   0  0  0  0  0  0  0  0  0  0  0  0
   13.0499    1.6730    0.0000 N   0  0  0  0  0  0  0  0  0  0  0  0
    4.7617   -3.5710    0.0000 N   0  0  0  0  0  0  0  0  0  0  0  0
   12.7392    0.7224    0.0000 C   0  0  3  0  0  0  0  0  0  0  0  0
   13.3228   -0.0823    0.0000 C   0  0  0  0  0  0  0  0  0  0  0  0
   11.7930    0.4177    0.0000 C   0  0  0  0  0  0  0  0  0  0  0  0
   11.7930   -0.5823    0.0000 C   0  0  0  0  0  0  0  0  0  0  0  0
   12.7392   -0.8870    0.0000 C   0  0  0  0  0  0  0  0  0  0  0  0
    6.5968   -0.5823    0.0000 C   0  0  0  0  0  0  0  0  0  0  0  0
    7.4629   -2.0823    0.0000 C   0  0  0  0  0  0  0  0  0  0  0  0
    8.3289   -0.5823    0.0000 C   0  0  0  0  0  0  0  0  0  0  0  0
    5.7308   -1.0823    0.0000 C   0  0  0  0  0  0  0  0  0  0  0  0
    6.5968   -2.5823    0.0000 C   0  0  0  0  0  0  0  0  0  0  0  0
    9.1949   -1.0823    0.0000 C   0  0  0  0  0  0  0  0  0  0  0  0
   10.0610   -0.5823    0.0000 C   0  0  0  0  0  0  0  0  0  0  0  0
   10.9270   -1.0823    0.0000 C   0  0  0  0  0  0  0  0  0  0  0  0
   10.9270    0.9177    0.0000 C   0  0  0  0  0  0  0  0  0  0  0  0
   10.0610    0.4177    0.0000 C   0  0  0  0  0  0  0  0  0  0  0  0
    4.8648   -2.5823    0.0000 C   0  0  0  0  0  0  0  0  0  0  0  0
    3.9570   -2.1772    0.0000 C   0  0  0  0  0  0  0  0  0  0  0  0
   14.0284    1.8792    0.0000 C   0  0  0  0  0  0  0  0  0  0  0  0
    3.2892   -2.9215    0.0000 C   0  0  0  0  0  0  0  0  0  0  0  0
    3.6464   -1.2267    0.0000 C   0  0  0  0  0  0  0  0  0  0  0  0
   14.3391    2.8297    0.0000 C   0  0  0  0  0  0  0  0  0  0  0  0
    2.3107   -2.7153    0.0000 C   0  0  0  0  0  0  0  0  0  0  0  0
    2.6678   -1.0204    0.0000 C   0  0  0  0  0  0  0  0  0  0  0  0
    2.0000   -1.7647    0.0000 C   0  0  0  0  0  0  0  0  0  0  0  0
   13.3517    0.8186    0.0000 H   0  0  0  0  0  0  0  0  0  0  0  0
   13.7837   -0.4970    0.0000 H   0  0  0  0  0  0  0  0  0  0  0  0
   13.7837    0.3324    0.0000 H   0  0  0  0  0  0  0  0  0  0  0  0
   12.4882   -1.4539    0.0000 H   0  0  0  0  0  0  0  0  0  0  0  0
   13.2766   -1.1962    0.0000 H   0  0  0  0  0  0  0  0  0  0  0  0
    6.9954   -0.1073    0.0000 H   0  0  0  0  0  0  0  0  0  0  0  0
    6.1983   -0.1073    0.0000 H   0  0  0  0  0  0  0  0  0  0  0  0
    7.6749   -2.6649    0.0000 H   0  0  0  0  0  0  0  0  0  0  0  0
    8.0734   -1.9746    0.0000 H   0  0  0  0  0  0  0  0  0  0  0  0
    8.7274   -0.1073    0.0000 H   0  0  0  0  0  0  0  0  0  0  0  0
    7.9304   -0.1073    0.0000 H   0  0  0  0  0  0  0  0  0  0  0  0
    5.5188   -0.4997    0.0000 H   0  0  0  0  0  0  0  0  0  0  0  0
    5.1202   -1.1900    0.0000 H   0  0  0  0  0  0  0  0  0  0  0  0
    6.1983   -3.0572    0.0000 H   0  0  0  0  0  0  0  0  0  0  0  0
    6.9954   -3.0572    0.0000 H   0  0  0  0  0  0  0  0  0  0  0  0
    8.7964   -1.5572    0.0000 H   0  0  0  0  0  0  0  0  0  0  0  0
    9.5934   -1.5572    0.0000 H   0  0  0  0  0  0  0  0  0  0  0  0
   10.9270   -1.7023    0.0000 H   0  0  0  0  0  0  0  0  0  0  0  0
   10.9270    1.5377    0.0000 H   0  0  0  0  0  0  0  0  0  0  0  0
    9.5240    0.7277    0.0000 H   0  0  0  0  0  0  0  0  0  0  0  0
   12.6358    2.1344    0.0000 H   0  0  0  0  0  0  0  0  0  0  0  0
    4.0604   -0.7652    0.0000 H   0  0  0  0  0  0  0  0  0  0  0  0
    1.8966   -3.1767    0.0000 H   0  0  0  0  0  0  0  0  0  0  0  0
    2.4752   -0.4311    0.0000 H   0  0  0  0  0  0  0  0  0  0  0  0
    1.3933   -1.6369    0.0000 H   0  0  0  0  0  0  0  0  0  0  0  0
  1  9  1  0  0  0  0
  1 28  1  0  0  0  0
  2 30  1  0  0  0  0
  3 30  1  0  0  0  0
  4 30  1  0  0  0  0
  5 27  2  0  0  0  0
  6 15  1  0  0  0  0
  6 16  1  0  0  0  0
  6 17  1  0  0  0  0
  7 18  1  0  0  0  0
  7 19  1  0  0  0  0
  7 25  1  0  0  0  0
  8 10  1  0  0  0  0
  8 27  1  0  0  0  0
  8 54  1  0  0  0  0
  9 25  2  0  0  0  0
 10 11  1  0  0  0  0
 10 12  1  0  0  0  0
 10 34  1  0  0  0  0
 11 14  1  0  0  0  0
 11 35  1  0  0  0  0
 11 36  1  0  0  0  0
 12 13  2  0  0  0  0
 12 23  1  0  0  0  0
 13 14  1  0  0  0  0
 13 22  1  0  0  0  0
 14 37  1  0  0  0  0
 14 38  1  0  0  0  0
 15 18  1  0  0  0  0
 15 39  1  0  0  0  0
 15 40  1  0  0  0  0
 16 19  1  0  0  0  0
 16 41  1  0  0  0  0
 16 42  1  0  0  0  0
 17 20  1  0  0  0  0
 17 43  1  0  0  0  0
 17 44  1  0  0  0  0
 18 45  1  0  0  0  0
 18 46  1  0  0  0  0
 19 47  1  0  0  0  0
 19 48  1  0  0  0  0
 20 21  1  0  0  0  0
 20 49  1  0  0  0  0
 20 50  1  0  0  0  0
 21 22  2  0  0  0  0
 21 24  1  0  0  0  0
 22 51  1  0  0  0  0
 23 24  2  0  0  0  0
 23 52  1  0  0  0  0
 24 53  1  0  0  0  0
 25 26  1  0  0  0  0
 26 28  1  0  0  0  0
 26 29  2  0  0  0  0
 27 30  1  0  0  0  0
 28 31  2  0  0  0  0
 29 32  1  0  0  0  0
 29 55  1  0  0  0  0
 31 33  1  0  0  0  0
 31 56  1  0  0  0  0
 32 33  2  0  0  0  0
 32 57  1  0  0  0  0
 33 58  1  0  0  0  0
M  END
> <PUBCHEM_COMPOUND_CID>
44447061

> <PUBCHEM_COMPOUND_CANONICALIZED>
1

> <PUBCHEM_CACTVS_COMPLEXITY>
687

> <PUBCHEM_CACTVS_HBOND_ACCEPTOR>
8

> <PUBCHEM_CACTVS_HBOND_DONOR>
1

> <PUBCHEM_CACTVS_ROTATABLE_BOND>
5

> <PUBCHEM_CACTVS_SUBSKEYS>
AAADceB7oYBAAAAAAAAAAAAAAAAAAeIAAAA8YIAAAAAAAHgB9AAAHwQQQAAADCjB2hQxsdPAAACsAiNycACDABAhAABJmLgoRJiIYKLAmZGUIAxglgLIyAcQgMAOwAACAAAUAACAAAQAACgAACAACQAAAA==

> <PUBCHEM_IUPAC_OPENEYE_NAME>
N-[5-[2-[4-(1,2-benzothiazol-3-yl)piperazin-1-yl]ethyl]indan-1-yl]-2,2,2-trifluoro-acetamide

> <PUBCHEM_IUPAC_CAS_NAME>
N-[5-[2-[4-(1,2-benzothiazol-3-yl)-1-piperazinyl]ethyl]-2,3-dihydro-1H-inden-1-yl]-2,2,2-trifluoroacetamide

> <PUBCHEM_IUPAC_NAME_MARKUP>
<I>N</I>-[5-[2-[4-(1,2-benzothiazol-3-yl)piperazin-1-yl]ethyl]-2,3-dihydro-1<I>H</I>-inden-1-yl]-2,2,2-trifluoroacetamide

> <PUBCHEM_IUPAC_NAME>
N-[5-[2-[4-(1,2-benzothiazol-3-yl)piperazin-1-yl]ethyl]-2,3-dihydro-1H-inden-1-yl]-2,2,2-trifluoroacetamide

> <PUBCHEM_IUPAC_SYSTEMATIC_NAME>
N-[5-[2-[4-(1,2-benzothiazol-3-yl)piperazin-1-yl]ethyl]-2,3-dihydro-1H-inden-1-yl]-2,2,2-tris(fluoranyl)ethanamide

> <PUBCHEM_IUPAC_TRADITIONAL_NAME>
N-[5-[2-[4-(1,2-benzothiazol-3-yl)piperazino]ethyl]indan-1-yl]-2,2,2-trifluoro-acetamide

> <PUBCHEM_IUPAC_INCHI>
InChI=1S/C24H25F3N4OS/c25-24(26,27)23(32)28-20-8-6-17-15-16(5-7-18(17)20)9-10-30-11-13-31(14-12-30)22-19-3-1-2-4-21(19)33-29-22/h1-5,7,15,20H,6,8-14H2,(H,28,32)

> <PUBCHEM_IUPAC_INCHIKEY>
NATFNVDYLPURMJ-UHFFFAOYSA-N

> <PUBCHEM_XLOGP3_AA>
5.2

> <PUBCHEM_EXACT_MASS>
474.17011709

> <PUBCHEM_MOLECULAR_FORMULA>
C24H25F3N4OS

> <PUBCHEM_MOLECULAR_WEIGHT>
474.5

> <PUBCHEM_OPENEYE_CAN_SMILES>
C1CC2=C(C1NC(=O)C(F)(F)F)C=CC(=C2)CCN3CCN(CC3)C4=NSC5=CC=CC=C54

> <PUBCHEM_OPENEYE_ISO_SMILES>
C1CC2=C(C1NC(=O)C(F)(F)F)C=CC(=C2)CCN3CCN(CC3)C4=NSC5=CC=CC=C54

> <PUBCHEM_CACTVS_TPSA>
76.7

> <PUBCHEM_MONOISOTOPIC_WEIGHT>
474.17011709

> <PUBCHEM_TOTAL_CHARGE>
0

> <PUBCHEM_HEAVY_ATOM_COUNT>
33

> <PUBCHEM_ATOM_DEF_STEREO_COUNT>
0

> <PUBCHEM_ATOM_UDEF_STEREO_COUNT>
1

> <PUBCHEM_BOND_DEF_STEREO_COUNT>
0

> <PUBCHEM_BOND_UDEF_STEREO_COUNT>
0

> <PUBCHEM_ISOTOPIC_ATOM_COUNT>
0

> <PUBCHEM_COMPONENT_COUNT>
1

> <PUBCHEM_CACTVS_TAUTO_COUNT>
-1

> <PUBCHEM_COORDINATE_TYPE>
1
5
255

> <PUBCHEM_BONDANNOTATIONS>
1  28  8
1  9  8
12  13  8
12  23  8
13  22  8
21  22  8
21  24  8
23  24  8
25  26  8
26  28  8
26  29  8
28  31  8
29  32  8
31  33  8
32  33  8
10  8  3
9  25  8

$$$$
