45260679
  -OEChem-09292322502D

 40 41  0     0  0  0  0  0  0999 V2000
    5.2087    4.5600    0.0000 Cl  0  0  0  0  0  0  0  0  0  0  0  0
    1.7320    9.6200    0.0000 F   0  0  0  0  0  0  0  0  0  0  0  0
    2.5981    4.1200    0.0000 O   0  0  0  0  0  0  0  0  0  0  0  0
    0.0000    5.6200    0.0000 O   0  0  0  0  0  0  0  0  0  0  0  0
    1.7320    1.6200    0.0000 N   0  0  0  0  0  0  0  0  0  0  0  0
    1.7320    3.6200    0.0000 C   0  0  0  0  0  0  0  0  0  0  0  0
    0.8660    3.1200    0.0000 C   0  0  0  0  0  0  0  0  0  0  0  0
    2.5981    3.1200    0.0000 C   0  0  0  0  0  0  0  0  0  0  0  0
    0.8660    2.1200    0.0000 C   0  0  0  0  0  0  0  0  0  0  0  0
    2.5981    2.1200    0.0000 C   0  0  0  0  0  0  0  0  0  0  0  0
    0.8660    4.1200    0.0000 C   0  0  0  0  0  0  0  0  0  0  0  0
    0.8660    5.1200    0.0000 C   0  0  0  0  0  0  0  0  0  0  0  0
    1.7320    0.6200    0.0000 C   0  0  0  0  0  0  0  0  0  0  0  0
    1.7320    5.6200    0.0000 C   0  0  0  0  0  0  0  0  0  0  0  0
    2.5981    5.1200    0.0000 C   0  0  0  0  0  0  0  0  0  0  0  0
    1.7320    6.6200    0.0000 C   0  0  0  0  0  0  0  0  0  0  0  0
    2.5981    7.1200    0.0000 C   0  0  0  0  0  0  0  0  0  0  0  0
    0.8660    7.1200    0.0000 C   0  0  0  0  0  0  0  0  0  0  0  0
    2.5981    8.1200    0.0000 C   0  0  0  0  0  0  0  0  0  0  0  0
    0.8660    8.1200    0.0000 C   0  0  0  0  0  0  0  0  0  0  0  0
    1.7320    8.6200    0.0000 C   0  0  0  0  0  0  0  0  0  0  0  0
    0.6540    3.7026    0.0000 H   0  0  0  0  0  0  0  0  0  0  0  0
    0.2554    3.0123    0.0000 H   0  0  0  0  0  0  0  0  0  0  0  0
    3.2087    3.0123    0.0000 H   0  0  0  0  0  0  0  0  0  0  0  0
    2.8101    3.7026    0.0000 H   0  0  0  0  0  0  0  0  0  0  0  0
    0.2554    2.2277    0.0000 H   0  0  0  0  0  0  0  0  0  0  0  0
    0.6540    1.5374    0.0000 H   0  0  0  0  0  0  0  0  0  0  0  0
    2.8101    1.5374    0.0000 H   0  0  0  0  0  0  0  0  0  0  0  0
    3.2087    2.2277    0.0000 H   0  0  0  0  0  0  0  0  0  0  0  0
    0.2554    4.2277    0.0000 H   0  0  0  0  0  0  0  0  0  0  0  0
    0.6540    3.5374    0.0000 H   0  0  0  0  0  0  0  0  0  0  0  0
    1.1120    0.6200    0.0000 H   0  0  0  0  0  0  0  0  0  0  0  0
    1.7320    0.0000    0.0000 H   0  0  0  0  0  0  0  0  0  0  0  0
    2.3521    0.6200    0.0000 H   0  0  0  0  0  0  0  0  0  0  0  0
    3.1350    5.4300    0.0000 H   0  0  0  0  0  0  0  0  0  0  0  0
    3.1350    6.8100    0.0000 H   0  0  0  0  0  0  0  0  0  0  0  0
    0.3291    6.8100    0.0000 H   0  0  0  0  0  0  0  0  0  0  0  0
    3.1350    8.4300    0.0000 H   0  0  0  0  0  0  0  0  0  0  0  0
    0.3291    8.4300    0.0000 H   0  0  0  0  0  0  0  0  0  0  0  0
    6.2087    4.5600    0.0000 H   0  0  0  0  0  0  0  0  0  0  0  0
  1 40  1  0  0  0  0
  2 21  1  0  0  0  0
  3  6  1  0  0  0  0
  3 15  1  0  0  0  0
  4 12  2  0  0  0  0
  5  9  1  0  0  0  0
  5 10  1  0  0  0  0
  5 13  1  0  0  0  0
  6  7  1  0  0  0  0
  6  8  1  0  0  0  0
  6 11  1  0  0  0  0
  7  9  1  0  0  0  0
  7 22  1  0  0  0  0
  7 23  1  0  0  0  0
  8 10  1  0  0  0  0
  8 24  1  0  0  0  0
  8 25  1  0  0  0  0
  9 26  1  0  0  0  0
  9 27  1  0  0  0  0
 10 28  1  0  0  0  0
 10 29  1  0  0  0  0
 11 12  1  0  0  0  0
 11 30  1  0  0  0  0
 11 31  1  0  0  0  0
 12 14  1  0  0  0  0
 13 32  1  0  0  0  0
 13 33  1  0  0  0  0
 13 34  1  0  0  0  0
 14 15  2  0  0  0  0
 14 16  1  0  0  0  0
 15 35  1  0  0  0  0
 16 17  2  0  0  0  0
 16 18  1  0  0  0  0
 17 19  1  0  0  0  0
 17 36  1  0  0  0  0
 18 20  2  0  0  0  0
 18 37  1  0  0  0  0
 19 21  2  0  0  0  0
 19 38  1  0  0  0  0
 20 21  1  0  0  0  0
 20 39  1  0  0  0  0
M  END
> <PUBCHEM_COMPOUND_CID>
45260679

> <PUBCHEM_COMPOUND_CANONICALIZED>
1

> <PUBCHEM_CACTVS_COMPLEXITY>
405

> <PUBCHEM_CACTVS_HBOND_ACCEPTOR>
4

> <PUBCHEM_CACTVS_HBOND_DONOR>
1

> <PUBCHEM_CACTVS_ROTATABLE_BOND>
1

> <PUBCHEM_CACTVS_SUBSKEYS>
AAADceB6MQAEAAAAAAAAAAAAAAAAAAAAAAA8QIAAAAAAAAABAAAAHwAAAAAADEThmA4yAIMABACIAqBSAAACCAAgIAAIiAEIAMgIIDaAlRCEIAAmoACIiIeYyfCOAAAAAAAAAAAAAAAAAAAAAAAAAAAAAA==

> <PUBCHEM_IUPAC_OPENEYE_NAME>
3-(4-fluorophenyl)-9-methyl-1-oxa-9-azaspiro[5.5]undec-2-en-4-one;hydrochloride

> <PUBCHEM_IUPAC_CAS_NAME>
3-(4-fluorophenyl)-9-methyl-1-oxa-9-azaspiro[5.5]undec-2-en-4-one;hydrochloride

> <PUBCHEM_IUPAC_NAME_MARKUP>
3-(4-fluorophenyl)-9-methyl-1-oxa-9-azaspiro[5.5]undec-2-en-4-one;hydrochloride

> <PUBCHEM_IUPAC_NAME>
3-(4-fluorophenyl)-9-methyl-1-oxa-9-azaspiro[5.5]undec-2-en-4-one;hydrochloride

> <PUBCHEM_IUPAC_SYSTEMATIC_NAME>
3-(4-fluorophenyl)-9-methyl-1-oxa-9-azaspiro[5.5]undec-2-en-4-one;hydrochloride

> <PUBCHEM_IUPAC_TRADITIONAL_NAME>
3-(4-fluorophenyl)-9-methyl-1-oxa-9-azaspiro[5.5]undec-2-en-4-one;hydrochloride

> <PUBCHEM_IUPAC_INCHI>
InChI=1S/C16H18FNO2.ClH/c1-18-8-6-16(7-9-18)10-15(19)14(11-20-16)12-2-4-13(17)5-3-12;/h2-5,11H,6-10H2,1H3;1H

> <PUBCHEM_IUPAC_INCHIKEY>
XUAIHOHRXUJTGE-UHFFFAOYSA-N

> <PUBCHEM_EXACT_MASS>
311.1088347

> <PUBCHEM_MOLECULAR_FORMULA>
C16H19ClFNO2

> <PUBCHEM_MOLECULAR_WEIGHT>
311.78

> <PUBCHEM_OPENEYE_CAN_SMILES>
CN1CCC2(CC1)CC(=O)C(=CO2)C3=CC=C(C=C3)F.Cl

> <PUBCHEM_OPENEYE_ISO_SMILES>
CN1CCC2(CC1)CC(=O)C(=CO2)C3=CC=C(C=C3)F.Cl

> <PUBCHEM_CACTVS_TPSA>
29.5

> <PUBCHEM_MONOISOTOPIC_WEIGHT>
311.1088347

> <PUBCHEM_TOTAL_CHARGE>
0

> <PUBCHEM_HEAVY_ATOM_COUNT>
21

> <PUBCHEM_ATOM_DEF_STEREO_COUNT>
0

> <PUBCHEM_ATOM_UDEF_STEREO_COUNT>
0

> <PUBCHEM_BOND_DEF_STEREO_COUNT>
0

> <PUBCHEM_BOND_UDEF_STEREO_COUNT>
0

> <PUBCHEM_ISOTOPIC_ATOM_COUNT>
0

> <PUBCHEM_COMPONENT_COUNT>
2

> <PUBCHEM_CACTVS_TAUTO_COUNT>
-1

> <PUBCHEM_COORDINATE_TYPE>
1
5
255

> <PUBCHEM_BONDANNOTATIONS>
16  17  8
16  18  8
17  19  8
18  20  8
19  21  8
20  21  8

$$$$
