134146106
  -OEChem-09292322382D

 58 62  0     0  0  0  0  0  0999 V2000
    4.6783   -5.1718    0.0000 S   0  0  0  0  0  0  0  0  0  0  0  0
    7.4742    4.9923    0.0000 O   0  0  0  0  0  0  0  0  0  0  0  0
    9.8626    3.7838    0.0000 O   0  0  0  0  0  0  0  0  0  0  0  0
    5.6103   -0.7108    0.0000 N   0  0  0  0  0  0  0  0  0  0  0  0
    7.8314    3.2975    0.0000 N   0  0  0  0  0  0  0  0  0  0  0  0
    4.9889   -2.6118    0.0000 N   0  0  0  0  0  0  0  0  0  0  0  0
    5.2619   -4.3671    0.0000 N   0  0  0  0  0  0  0  0  0  0  0  0
    7.2101    1.3965    0.0000 C   0  0  0  0  0  0  0  0  0  0  0  0
    6.8994    0.4459    0.0000 C   0  0  0  0  0  0  0  0  0  0  0  0
    8.1886    1.6027    0.0000 C   0  0  0  0  0  0  0  0  0  0  0  0
    6.5422    2.1408    0.0000 C   0  0  0  0  0  0  0  0  0  0  0  0
    5.9209    0.2397    0.0000 C   0  0  0  0  0  0  0  0  0  0  0  0
    8.4993    2.5532    0.0000 C   0  0  0  0  0  0  0  0  0  0  0  0
    6.8529    3.0913    0.0000 C   0  0  0  0  0  0  0  0  0  0  0  0
    4.6318   -0.9170    0.0000 C   0  0  0  0  0  0  0  0  0  0  0  0
    6.2781   -1.4551    0.0000 C   0  0  0  0  0  0  0  0  0  0  0  0
    4.3211   -1.8675    0.0000 C   0  0  0  0  0  0  0  0  0  0  0  0
    5.9674   -2.4056    0.0000 C   0  0  0  0  0  0  0  0  0  0  0  0
    8.1421    4.2480    0.0000 C   0  0  0  0  0  0  0  0  0  0  0  0
    4.6783   -3.5624    0.0000 C   0  0  0  0  0  0  0  0  0  0  0  0
    3.7320   -3.8671    0.0000 C   0  0  0  0  0  0  0  0  0  0  0  0
    9.1206    4.4542    0.0000 C   0  0  0  0  0  0  0  0  0  0  0  0
    3.7320   -4.8671    0.0000 C   0  0  0  0  0  0  0  0  0  0  0  0
    2.8660   -3.3671    0.0000 C   0  0  0  0  0  0  0  0  0  0  0  0
    9.5289    5.3671    0.0000 C   0  0  0  0  0  0  0  0  0  0  0  0
    2.8660   -5.3671    0.0000 C   0  0  0  0  0  0  0  0  0  0  0  0
    2.0000   -3.8671    0.0000 C   0  0  0  0  0  0  0  0  0  0  0  0
   10.5232    5.2608    0.0000 C   0  0  0  0  0  0  0  0  0  0  0  0
   10.7295    4.2823    0.0000 C   0  0  0  0  0  0  0  0  0  0  0  0
    2.0000   -4.8671    0.0000 C   0  0  0  0  0  0  0  0  0  0  0  0
    7.6242    0.9350    0.0000 H   0  0  0  0  0  0  0  0  0  0  0  0
    6.9200   -0.1737    0.0000 H   0  0  0  0  0  0  0  0  0  0  0  0
    7.5132    0.3586    0.0000 H   0  0  0  0  0  0  0  0  0  0  0  0
    8.2092    0.9830    0.0000 H   0  0  0  0  0  0  0  0  0  0  0  0
    8.8024    1.5153    0.0000 H   0  0  0  0  0  0  0  0  0  0  0  0
    5.9953    2.4328    0.0000 H   0  0  0  0  0  0  0  0  0  0  0  0
    6.1597    1.6529    0.0000 H   0  0  0  0  0  0  0  0  0  0  0  0
    5.9004    0.8594    0.0000 H   0  0  0  0  0  0  0  0  0  0  0  0
    5.3071    0.3271    0.0000 H   0  0  0  0  0  0  0  0  0  0  0  0
    9.0462    2.2612    0.0000 H   0  0  0  0  0  0  0  0  0  0  0  0
    8.8818    3.0411    0.0000 H   0  0  0  0  0  0  0  0  0  0  0  0
    6.8323    3.7110    0.0000 H   0  0  0  0  0  0  0  0  0  0  0  0
    6.2391    3.1786    0.0000 H   0  0  0  0  0  0  0  0  0  0  0  0
    4.6112   -0.2974    0.0000 H   0  0  0  0  0  0  0  0  0  0  0  0
    4.0179   -0.8297    0.0000 H   0  0  0  0  0  0  0  0  0  0  0  0
    6.8250   -1.7471    0.0000 H   0  0  0  0  0  0  0  0  0  0  0  0
    6.6607   -0.9672    0.0000 H   0  0  0  0  0  0  0  0  0  0  0  0
    3.7742   -1.5755    0.0000 H   0  0  0  0  0  0  0  0  0  0  0  0
    3.9385   -2.3554    0.0000 H   0  0  0  0  0  0  0  0  0  0  0  0
    5.9880   -3.0253    0.0000 H   0  0  0  0  0  0  0  0  0  0  0  0
    6.5812   -2.4930    0.0000 H   0  0  0  0  0  0  0  0  0  0  0  0
    2.8660   -2.7471    0.0000 H   0  0  0  0  0  0  0  0  0  0  0  0
    9.2198    5.9046    0.0000 H   0  0  0  0  0  0  0  0  0  0  0  0
    2.8660   -5.9871    0.0000 H   0  0  0  0  0  0  0  0  0  0  0  0
    1.4631   -3.5571    0.0000 H   0  0  0  0  0  0  0  0  0  0  0  0
   10.9389    5.7209    0.0000 H   0  0  0  0  0  0  0  0  0  0  0  0
    1.4631   -5.1771    0.0000 H   0  0  0  0  0  0  0  0  0  0  0  0
   11.2954    4.0292    0.0000 H   0  0  0  0  0  0  0  0  0  0  0  0
  1  7  1  0  0  0  0
  1 23  1  0  0  0  0
  2 19  2  0  0  0  0
  3 22  1  0  0  0  0
  3 29  1  0  0  0  0
  4 12  1  0  0  0  0
  4 15  1  0  0  0  0
  4 16  1  0  0  0  0
  5 13  1  0  0  0  0
  5 14  1  0  0  0  0
  5 19  1  0  0  0  0
  6 17  1  0  0  0  0
  6 18  1  0  0  0  0
  6 20  1  0  0  0  0
  7 20  2  0  0  0  0
  8  9  1  0  0  0  0
  8 10  1  0  0  0  0
  8 11  1  0  0  0  0
  8 31  1  0  0  0  0
  9 12  1  0  0  0  0
  9 32  1  0  0  0  0
  9 33  1  0  0  0  0
 10 13  1  0  0  0  0
 10 34  1  0  0  0  0
 10 35  1  0  0  0  0
 11 14  1  0  0  0  0
 11 36  1  0  0  0  0
 11 37  1  0  0  0  0
 12 38  1  0  0  0  0
 12 39  1  0  0  0  0
 13 40  1  0  0  0  0
 13 41  1  0  0  0  0
 14 42  1  0  0  0  0
 14 43  1  0  0  0  0
 15 17  1  0  0  0  0
 15 44  1  0  0  0  0
 15 45  1  0  0  0  0
 16 18  1  0  0  0  0
 16 46  1  0  0  0  0
 16 47  1  0  0  0  0
 17 48  1  0  0  0  0
 17 49  1  0  0  0  0
 18 50  1  0  0  0  0
 18 51  1  0  0  0  0
 19 22  1  0  0  0  0
 20 21  1  0  0  0  0
 21 23  1  0  0  0  0
 21 24  2  0  0  0  0
 22 25  2  0  0  0  0
 23 26  2  0  0  0  0
 24 27  1  0  0  0  0
 24 52  1  0  0  0  0
 25 28  1  0  0  0  0
 25 53  1  0  0  0  0
 26 30  1  0  0  0  0
 26 54  1  0  0  0  0
 27 30  2  0  0  0  0
 27 55  1  0  0  0  0
 28 29  2  0  0  0  0
 28 56  1  0  0  0  0
 29 58  1  0  0  0  0
 30 57  1  0  0  0  0
M  END
> <PUBCHEM_COMPOUND_CID>
134146106

> <PUBCHEM_COMPOUND_CANONICALIZED>
1

> <PUBCHEM_CACTVS_COMPLEXITY>
578

> <PUBCHEM_CACTVS_HBOND_ACCEPTOR>
6

> <PUBCHEM_CACTVS_HBOND_DONOR>
0

> <PUBCHEM_CACTVS_ROTATABLE_BOND>
5

> <PUBCHEM_CACTVS_SUBSKEYS>
AAADceB7sABAAAAAAAAAAAAAAAAAAWJAAAA8WIAAAAAAAFgB/AAAHgQAQAAADQTh2gYxtdMABECsAqty8AKDCBAlIABJmDnuTNiOZrLEvb+XOSzkxhPY6YeYlwIOAAAAAAAEAAAAAAAAAAgAAAAAAAAAAA==

> <PUBCHEM_IUPAC_OPENEYE_NAME>
[4-[2-[4-(1,2-benzothiazol-3-yl)piperazin-1-yl]ethyl]-1-piperidyl]-(2-furyl)methanone

> <PUBCHEM_IUPAC_CAS_NAME>
[4-[2-[4-(1,2-benzothiazol-3-yl)-1-piperazinyl]ethyl]-1-piperidinyl]-(2-furanyl)methanone

> <PUBCHEM_IUPAC_NAME_MARKUP>
[4-[2-[4-(1,2-benzothiazol-3-yl)piperazin-1-yl]ethyl]piperidin-1-yl]-(furan-2-yl)methanone

> <PUBCHEM_IUPAC_NAME>
[4-[2-[4-(1,2-benzothiazol-3-yl)piperazin-1-yl]ethyl]piperidin-1-yl]-(furan-2-yl)methanone

> <PUBCHEM_IUPAC_SYSTEMATIC_NAME>
[4-[2-[4-(1,2-benzothiazol-3-yl)piperazin-1-yl]ethyl]piperidin-1-yl]-(furan-2-yl)methanone

> <PUBCHEM_IUPAC_TRADITIONAL_NAME>
[4-[2-[4-(1,2-benzothiazol-3-yl)piperazino]ethyl]piperidino]-(2-furyl)methanone

> <PUBCHEM_IUPAC_INCHI>
InChI=1S/C23H28N4O2S/c28-23(20-5-3-17-29-20)27-11-8-18(9-12-27)7-10-25-13-15-26(16-14-25)22-19-4-1-2-6-21(19)30-24-22/h1-6,17-18H,7-16H2

> <PUBCHEM_IUPAC_INCHIKEY>
DGSJCQBCZUXHPR-UHFFFAOYSA-N

> <PUBCHEM_XLOGP3_AA>
4.2

> <PUBCHEM_EXACT_MASS>
424.19329732

> <PUBCHEM_MOLECULAR_FORMULA>
C23H28N4O2S

> <PUBCHEM_MOLECULAR_WEIGHT>
424.6

> <PUBCHEM_OPENEYE_CAN_SMILES>
C1CN(CCC1CCN2CCN(CC2)C3=NSC4=CC=CC=C43)C(=O)C5=CC=CO5

> <PUBCHEM_OPENEYE_ISO_SMILES>
C1CN(CCC1CCN2CCN(CC2)C3=NSC4=CC=CC=C43)C(=O)C5=CC=CO5

> <PUBCHEM_CACTVS_TPSA>
81.1

> <PUBCHEM_MONOISOTOPIC_WEIGHT>
424.19329732

> <PUBCHEM_TOTAL_CHARGE>
0

> <PUBCHEM_HEAVY_ATOM_COUNT>
30

> <PUBCHEM_ATOM_DEF_STEREO_COUNT>
0

> <PUBCHEM_ATOM_UDEF_STEREO_COUNT>
0

> <PUBCHEM_BOND_DEF_STEREO_COUNT>
0

> <PUBCHEM_BOND_UDEF_STEREO_COUNT>
0

> <PUBCHEM_ISOTOPIC_ATOM_COUNT>
0

> <PUBCHEM_COMPONENT_COUNT>
1

> <PUBCHEM_CACTVS_TAUTO_COUNT>
-1

> <PUBCHEM_COORDINATE_TYPE>
1
5
255

> <PUBCHEM_BONDANNOTATIONS>
1  23  8
1  7  8
20  21  8
21  23  8
21  24  8
22  25  8
23  26  8
24  27  8
25  28  8
26  30  8
27  30  8
28  29  8
3  22  8
3  29  8
7  20  8

$$$$
