45379369
  -OEChem-09292322292D

 44 47  0     1  0  0  0  0  0999 V2000
    4.2841   -1.8210    0.0000 N   0  0  3  0  0  0  0  0  0  0  0  0
    3.1822    1.3082    0.0000 N   0  0  0  0  0  0  0  0  0  0  0  0
    3.7841    1.0451    0.0000 C   0  0  0  0  0  0  0  0  0  0  0  0
    4.6501    0.5451    0.0000 C   0  0  0  0  0  0  0  0  0  0  0  0
    2.9180   -0.4549    0.0000 C   0  0  0  0  0  0  0  0  0  0  0  0
    2.9180    0.5451    0.0000 C   0  0  0  0  0  0  0  0  0  0  0  0
    3.7841   -0.9549    0.0000 C   0  0  0  0  0  0  0  0  0  0  0  0
    5.5161    1.0451    0.0000 C   0  0  0  0  0  0  0  0  0  0  0  0
    5.2500   -2.0798    0.0000 C   0  0  0  0  0  0  0  0  0  0  0  0
    5.5088   -1.1139    0.0000 C   0  0  0  0  0  0  0  0  0  0  0  0
    6.3748    0.3861    0.0000 C   0  0  0  0  0  0  0  0  0  0  0  0
    6.3748   -0.6139    0.0000 C   0  0  0  0  0  0  0  0  0  0  0  0
    3.8001    2.0866    0.0000 C   0  0  0  0  0  0  0  0  0  0  0  0
    3.6621    0.4379    0.0000 C   0  0  0  0  0  0  0  0  0  0  0  0
    2.0080    1.0519    0.0000 C   0  0  0  0  0  0  0  0  0  0  0  0
    2.9021    2.6143    0.0000 C   0  0  0  0  0  0  0  0  0  0  0  0
    3.6753   -2.6143    0.0000 C   0  0  0  0  0  0  0  0  0  0  0  0
    7.2688    0.9208    0.0000 C   0  0  0  0  0  0  0  0  0  0  0  0
    7.2688   -1.1485    0.0000 C   0  0  0  0  0  0  0  0  0  0  0  0
    2.0000    2.0935    0.0000 C   0  0  0  0  0  0  0  0  0  0  0  0
    8.1748    0.4070    0.0000 C   0  0  0  0  0  0  0  0  0  0  0  0
    8.1748   -0.6347    0.0000 C   0  0  0  0  0  0  0  0  0  0  0  0
    2.3074   -0.3473    0.0000 H   0  0  0  0  0  0  0  0  0  0  0  0
    2.7060   -1.0376    0.0000 H   0  0  0  0  0  0  0  0  0  0  0  0
    4.3946   -0.8473    0.0000 H   0  0  0  0  0  0  0  0  0  0  0  0
    3.3456   -1.3934    0.0000 H   0  0  0  0  0  0  0  0  0  0  0  0
    5.9545    1.4835    0.0000 H   0  0  0  0  0  0  0  0  0  0  0  0
    5.1387    1.5369    0.0000 H   0  0  0  0  0  0  0  0  0  0  0  0
    5.0895   -2.6787    0.0000 H   0  0  0  0  0  0  0  0  0  0  0  0
    5.8489   -2.2402    0.0000 H   0  0  0  0  0  0  0  0  0  0  0  0
    5.3483   -0.5150    0.0000 H   0  0  0  0  0  0  0  0  0  0  0  0
    4.8888   -1.1139    0.0000 H   0  0  0  0  0  0  0  0  0  0  0  0
    3.3761   -0.1122    0.0000 H   0  0  0  0  0  0  0  0  0  0  0  0
    2.5644    1.3600    0.0000 H   0  0  0  0  0  0  0  0  0  0  0  0
    1.4747    0.7357    0.0000 H   0  0  0  0  0  0  0  0  0  0  0  0
    2.9045    3.2343    0.0000 H   0  0  0  0  0  0  0  0  0  0  0  0
    3.1834   -2.2369    0.0000 H   0  0  0  0  0  0  0  0  0  0  0  0
    3.2979   -3.1062    0.0000 H   0  0  0  0  0  0  0  0  0  0  0  0
    4.1672   -2.9918    0.0000 H   0  0  0  0  0  0  0  0  0  0  0  0
    7.2616    1.5408    0.0000 H   0  0  0  0  0  0  0  0  0  0  0  0
    7.2616   -1.7685    0.0000 H   0  0  0  0  0  0  0  0  0  0  0  0
    1.4619    2.4014    0.0000 H   0  0  0  0  0  0  0  0  0  0  0  0
    8.7106    0.7190    0.0000 H   0  0  0  0  0  0  0  0  0  0  0  0
    8.7106   -0.9467    0.0000 H   0  0  0  0  0  0  0  0  0  0  0  0
  1  7  1  0  0  0  0
  1  9  1  0  0  0  0
  1 17  1  0  0  0  0
  2 13  1  0  0  0  0
  2 14  1  0  0  0  0
  2 34  1  0  0  0  0
  3  4  1  0  0  0  0
  3  6  2  0  0  0  0
  3 13  1  0  0  0  0
  4  8  1  0  0  0  0
  4 14  2  0  0  0  0
  5  6  1  0  0  0  0
  5  7  1  0  0  0  0
  5 23  1  0  0  0  0
  5 24  1  0  0  0  0
  6 15  1  0  0  0  0
  7 25  1  0  0  0  0
  7 26  1  0  0  0  0
  8 11  1  0  0  0  0
  8 27  1  0  0  0  0
  8 28  1  0  0  0  0
  9 10  1  0  0  0  0
  9 29  1  0  0  0  0
  9 30  1  0  0  0  0
 10 12  1  0  0  0  0
 10 31  1  0  0  0  0
 10 32  1  0  0  0  0
 11 12  1  0  0  0  0
 11 18  2  0  0  0  0
 12 19  2  0  0  0  0
 13 16  2  0  0  0  0
 14 33  1  0  0  0  0
 15 20  2  0  0  0  0
 15 35  1  0  0  0  0
 16 20  1  0  0  0  0
 16 36  1  0  0  0  0
 17 37  1  0  0  0  0
 17 38  1  0  0  0  0
 17 39  1  0  0  0  0
 18 21  1  0  0  0  0
 18 40  1  0  0  0  0
 19 22  1  0  0  0  0
 19 41  1  0  0  0  0
 20 42  1  0  0  0  0
 21 22  2  0  0  0  0
 21 43  1  0  0  0  0
 22 44  1  0  0  0  0
M  END
> <PUBCHEM_COMPOUND_CID>
45379369

> <PUBCHEM_COMPOUND_CANONICALIZED>
1

> <PUBCHEM_CACTVS_COMPLEXITY>
369

> <PUBCHEM_CACTVS_HBOND_ACCEPTOR>
1

> <PUBCHEM_CACTVS_HBOND_DONOR>
1

> <PUBCHEM_CACTVS_ROTATABLE_BOND>
0

> <PUBCHEM_CACTVS_SUBSKEYS>
AAADceB7AAAAAAAAAAAAAAAAAAAAAWAAAAAwYAAAAAAAAFgB9AAAHAAQAAAADAjBHgQ+wPPJkACgAzRnRACCgCAxAiAI2aA4ZJgIIOLAkZGEIAhgkADIyAcQgMAOgAAAQAASAAAAAACAACQAAAAAAAAAAA==

> <PUBCHEM_IUPAC_OPENEYE_NAME>
11-methyl-11,19-diazatetracyclo[12.6.1.03,8.018,21]henicosa-1(20),3,5,7,14(21),15,17-heptaene

> <PUBCHEM_IUPAC_CAS_NAME>
11-methyl-11,19-diazatetracyclo[12.6.1.03,8.018,21]heneicosa-1(20),3,5,7,14(21),15,17-heptaene

> <PUBCHEM_IUPAC_NAME_MARKUP>
11-methyl-11,19-diazatetracyclo[12.6.1.0<SUP>3,8</SUP>.0<SUP>18,21</SUP>]henicosa-1(20),3,5,7,14(21),15,17-heptaene

> <PUBCHEM_IUPAC_NAME>
11-methyl-11,19-diazatetracyclo[12.6.1.03,8.018,21]henicosa-1(20),3,5,7,14(21),15,17-heptaene

> <PUBCHEM_IUPAC_SYSTEMATIC_NAME>
11-methyl-11,19-diazatetracyclo[12.6.1.03,8.018,21]henicosa-1(20),3,5,7,14(21),15,17-heptaene

> <PUBCHEM_IUPAC_TRADITIONAL_NAME>
11-methyl-11,19-diazatetracyclo[12.6.1.03,8.018,21]heneicosa-1(20),3,5,7,14(21),15,17-heptaene

> <PUBCHEM_IUPAC_INCHI>
InChI=1S/C20H22N2/c1-22-11-9-15-5-2-3-6-17(15)13-18-14-21-19-8-4-7-16(10-12-22)20(18)19/h2-8,14,21H,9-13H2,1H3

> <PUBCHEM_IUPAC_INCHIKEY>
MSXGPWPTXORIBR-UHFFFAOYSA-N

> <PUBCHEM_XLOGP3_AA>
4.3

> <PUBCHEM_EXACT_MASS>
290.178298710

> <PUBCHEM_MOLECULAR_FORMULA>
C20H22N2

> <PUBCHEM_MOLECULAR_WEIGHT>
290.4

> <PUBCHEM_OPENEYE_CAN_SMILES>
CN1CCC2=C3C(=CNC3=CC=C2)CC4=CC=CC=C4CC1

> <PUBCHEM_OPENEYE_ISO_SMILES>
CN1CCC2=C3C(=CNC3=CC=C2)CC4=CC=CC=C4CC1

> <PUBCHEM_CACTVS_TPSA>
19

> <PUBCHEM_MONOISOTOPIC_WEIGHT>
290.178298710

> <PUBCHEM_TOTAL_CHARGE>
0

> <PUBCHEM_HEAVY_ATOM_COUNT>
22

> <PUBCHEM_ATOM_DEF_STEREO_COUNT>
0

> <PUBCHEM_ATOM_UDEF_STEREO_COUNT>
0

> <PUBCHEM_BOND_DEF_STEREO_COUNT>
0

> <PUBCHEM_BOND_UDEF_STEREO_COUNT>
0

> <PUBCHEM_ISOTOPIC_ATOM_COUNT>
0

> <PUBCHEM_COMPONENT_COUNT>
1

> <PUBCHEM_CACTVS_TAUTO_COUNT>
-1

> <PUBCHEM_COORDINATE_TYPE>
1
5
255

> <PUBCHEM_BONDANNOTATIONS>
11  12  8
11  18  8
12  19  8
13  16  8
15  20  8
16  20  8
18  21  8
19  22  8
2  13  8
2  14  8
21  22  8
3  13  8
3  4  8
3  6  8
4  14  8
6  15  8

$$$$
