118726018
  -OEChem-09292322022D

 55 57  0     1  0  0  0  0  0999 V2000
    3.5605    3.5050    0.0000 O   0  0  0  0  0  0  0  0  0  0  0  0
    2.0000    2.7535    0.0000 O   0  0  0  0  0  0  0  0  0  0  0  0
    8.1930   -3.9129    0.0000 O   0  0  0  0  0  0  0  0  0  0  0  0
    3.9311   -0.4129    0.0000 N   0  0  3  0  0  0  0  0  0  0  0  0
    3.4311    1.7778    0.0000 N   0  0  0  0  0  0  0  0  0  0  0  0
    6.6094   -4.7176    0.0000 N   0  0  0  0  0  0  0  0  0  0  0  0
    4.8321    0.0210    0.0000 C   0  0  0  0  0  0  0  0  0  0  0  0
    3.0301    0.0210    0.0000 C   0  0  0  0  0  0  0  0  0  0  0  0
    5.0546    0.9959    0.0000 C   0  0  0  0  0  0  0  0  0  0  0  0
    3.9311   -1.4129    0.0000 C   0  0  0  0  0  0  0  0  0  0  0  0
    2.8076    0.9959    0.0000 C   0  0  0  0  0  0  0  0  0  0  0  0
    4.4311    1.7778    0.0000 C   0  0  0  0  0  0  0  0  0  0  0  0
    4.7971   -1.9129    0.0000 C   0  0  0  0  0  0  0  0  0  0  0  0
    4.7971   -2.9129    0.0000 C   0  0  0  0  0  0  0  0  0  0  0  0
    5.6631   -3.4129    0.0000 C   0  0  0  0  0  0  0  0  0  0  0  0
    2.9972    2.6788    0.0000 C   0  0  0  0  0  0  0  0  0  0  0  0
    6.6094   -3.1081    0.0000 C   0  0  0  0  0  0  0  0  0  0  0  0
    5.6631   -4.4129    0.0000 C   0  0  0  0  0  0  0  0  0  0  0  0
    3.1266    4.4060    0.0000 C   0  0  0  0  0  0  0  0  0  0  0  0
    3.9311   -3.4129    0.0000 C   0  0  0  0  0  0  0  0  0  0  0  0
    7.1930   -3.9129    0.0000 C   0  0  0  0  0  0  0  0  0  0  0  0
    4.7971   -4.9129    0.0000 C   0  0  0  0  0  0  0  0  0  0  0  0
    3.9311   -4.4129    0.0000 C   0  0  0  0  0  0  0  0  0  0  0  0
    2.6928    5.3069    0.0000 C   0  0  0  0  0  0  0  0  0  0  0  0
    4.0276    4.8398    0.0000 C   0  0  0  0  0  0  0  0  0  0  0  0
    2.2257    3.9721    0.0000 C   0  0  0  0  0  0  0  0  0  0  0  0
    4.9700   -0.5834    0.0000 H   0  0  0  0  0  0  0  0  0  0  0  0
    5.4521    0.0210    0.0000 H   0  0  0  0  0  0  0  0  0  0  0  0
    2.4101    0.0210    0.0000 H   0  0  0  0  0  0  0  0  0  0  0  0
    2.8922   -0.5834    0.0000 H   0  0  0  0  0  0  0  0  0  0  0  0
    5.6132    0.7269    0.0000 H   0  0  0  0  0  0  0  0  0  0  0  0
    5.4411    1.4807    0.0000 H   0  0  0  0  0  0  0  0  0  0  0  0
    3.3205   -1.3052    0.0000 H   0  0  0  0  0  0  0  0  0  0  0  0
    3.7190   -1.9955    0.0000 H   0  0  0  0  0  0  0  0  0  0  0  0
    2.4210    1.4807    0.0000 H   0  0  0  0  0  0  0  0  0  0  0  0
    2.2490    0.7269    0.0000 H   0  0  0  0  0  0  0  0  0  0  0  0
    4.9897    2.0468    0.0000 H   0  0  0  0  0  0  0  0  0  0  0  0
    4.2931    2.3822    0.0000 H   0  0  0  0  0  0  0  0  0  0  0  0
    5.4077   -2.0205    0.0000 H   0  0  0  0  0  0  0  0  0  0  0  0
    5.0092   -1.3303    0.0000 H   0  0  0  0  0  0  0  0  0  0  0  0
    7.1467   -2.7989    0.0000 H   0  0  0  0  0  0  0  0  0  0  0  0
    6.3583   -2.5412    0.0000 H   0  0  0  0  0  0  0  0  0  0  0  0
    3.3942   -3.1029    0.0000 H   0  0  0  0  0  0  0  0  0  0  0  0
    6.8020   -5.3069    0.0000 H   0  0  0  0  0  0  0  0  0  0  0  0
    4.7971   -5.5329    0.0000 H   0  0  0  0  0  0  0  0  0  0  0  0
    3.3942   -4.7229    0.0000 H   0  0  0  0  0  0  0  0  0  0  0  0
    3.2514    5.5759    0.0000 H   0  0  0  0  0  0  0  0  0  0  0  0
    2.4238    5.8655    0.0000 H   0  0  0  0  0  0  0  0  0  0  0  0
    2.1342    5.0379    0.0000 H   0  0  0  0  0  0  0  0  0  0  0  0
    4.2966    4.2812    0.0000 H   0  0  0  0  0  0  0  0  0  0  0  0
    4.5862    5.1088    0.0000 H   0  0  0  0  0  0  0  0  0  0  0  0
    3.7586    5.3984    0.0000 H   0  0  0  0  0  0  0  0  0  0  0  0
    1.9567    4.5307    0.0000 H   0  0  0  0  0  0  0  0  0  0  0  0
    1.6671    3.7031    0.0000 H   0  0  0  0  0  0  0  0  0  0  0  0
    2.4947    3.4135    0.0000 H   0  0  0  0  0  0  0  0  0  0  0  0
  1 16  1  0  0  0  0
  1 19  1  0  0  0  0
  2 16  2  0  0  0  0
  3 21  2  0  0  0  0
  4  7  1  0  0  0  0
  4  8  1  0  0  0  0
  4 10  1  0  0  0  0
  5 11  1  0  0  0  0
  5 12  1  0  0  0  0
  5 16  1  0  0  0  0
  6 18  1  0  0  0  0
  6 21  1  0  0  0  0
  6 44  1  0  0  0  0
  7  9  1  0  0  0  0
  7 27  1  0  0  0  0
  7 28  1  0  0  0  0
  8 11  1  0  0  0  0
  8 29  1  0  0  0  0
  8 30  1  0  0  0  0
  9 12  1  0  0  0  0
  9 31  1  0  0  0  0
  9 32  1  0  0  0  0
 10 13  1  0  0  0  0
 10 33  1  0  0  0  0
 10 34  1  0  0  0  0
 11 35  1  0  0  0  0
 11 36  1  0  0  0  0
 12 37  1  0  0  0  0
 12 38  1  0  0  0  0
 13 14  1  0  0  0  0
 13 39  1  0  0  0  0
 13 40  1  0  0  0  0
 14 15  2  0  0  0  0
 14 20  1  0  0  0  0
 15 17  1  0  0  0  0
 15 18  1  0  0  0  0
 17 21  1  0  0  0  0
 17 41  1  0  0  0  0
 17 42  1  0  0  0  0
 18 22  2  0  0  0  0
 19 24  1  0  0  0  0
 19 25  1  0  0  0  0
 19 26  1  0  0  0  0
 20 23  2  0  0  0  0
 20 43  1  0  0  0  0
 22 23  1  0  0  0  0
 22 45  1  0  0  0  0
 23 46  1  0  0  0  0
 24 47  1  0  0  0  0
 24 48  1  0  0  0  0
 24 49  1  0  0  0  0
 25 50  1  0  0  0  0
 25 51  1  0  0  0  0
 25 52  1  0  0  0  0
 26 53  1  0  0  0  0
 26 54  1  0  0  0  0
 26 55  1  0  0  0  0
M  END
> <PUBCHEM_COMPOUND_CID>
118726018

> <PUBCHEM_COMPOUND_CANONICALIZED>
1

> <PUBCHEM_CACTVS_COMPLEXITY>
517

> <PUBCHEM_CACTVS_HBOND_ACCEPTOR>
4

> <PUBCHEM_CACTVS_HBOND_DONOR>
1

> <PUBCHEM_CACTVS_ROTATABLE_BOND>
5

> <PUBCHEM_CACTVS_SUBSKEYS>
AAADceB7MAAAAAAAAAAAAAAAAAAAAWAAAAAwAAAABYAAAFgBAAAAHgAQAAAADEzBmAQyyIPABACIAiVSWACCAAAhAgAIiAEIZIgIYDLA1ZGcIAhglgDIyAcciICOgAAAQAASAAAAAACAACQAAAAAAAAAAA==

> <PUBCHEM_IUPAC_OPENEYE_NAME>
tert-butyl 4-[2-(2-oxoindolin-4-yl)ethyl]-1,4-diazepane-1-carboxylate

> <PUBCHEM_IUPAC_CAS_NAME>
4-[2-(2-oxo-1,3-dihydroindol-4-yl)ethyl]-1,4-diazepane-1-carboxylic acid tert-butyl ester

> <PUBCHEM_IUPAC_NAME_MARKUP>
<I>tert</I>-butyl 4-[2-(2-oxo-1,3-dihydroindol-4-yl)ethyl]-1,4-diazepane-1-carboxylate

> <PUBCHEM_IUPAC_NAME>
tert-butyl 4-[2-(2-oxo-1,3-dihydroindol-4-yl)ethyl]-1,4-diazepane-1-carboxylate

> <PUBCHEM_IUPAC_SYSTEMATIC_NAME>
tert-butyl 4-[2-(2-oxidanylidene-1,3-dihydroindol-4-yl)ethyl]-1,4-diazepane-1-carboxylate

> <PUBCHEM_IUPAC_TRADITIONAL_NAME>
4-[2-(2-ketoindolin-4-yl)ethyl]-1,4-diazepane-1-carboxylic acid tert-butyl ester

> <PUBCHEM_IUPAC_INCHI>
InChI=1S/C20H29N3O3/c1-20(2,3)26-19(25)23-10-5-9-22(12-13-23)11-8-15-6-4-7-17-16(15)14-18(24)21-17/h4,6-7H,5,8-14H2,1-3H3,(H,21,24)

> <PUBCHEM_IUPAC_INCHIKEY>
JZNHOASMQHZCKX-UHFFFAOYSA-N

> <PUBCHEM_XLOGP3_AA>
2.1

> <PUBCHEM_EXACT_MASS>
359.22089180

> <PUBCHEM_MOLECULAR_FORMULA>
C20H29N3O3

> <PUBCHEM_MOLECULAR_WEIGHT>
359.5

> <PUBCHEM_OPENEYE_CAN_SMILES>
CC(C)(C)OC(=O)N1CCCN(CC1)CCC2=C3CC(=O)NC3=CC=C2

> <PUBCHEM_OPENEYE_ISO_SMILES>
CC(C)(C)OC(=O)N1CCCN(CC1)CCC2=C3CC(=O)NC3=CC=C2

> <PUBCHEM_CACTVS_TPSA>
61.9

> <PUBCHEM_MONOISOTOPIC_WEIGHT>
359.22089180

> <PUBCHEM_TOTAL_CHARGE>
0

> <PUBCHEM_HEAVY_ATOM_COUNT>
26

> <PUBCHEM_ATOM_DEF_STEREO_COUNT>
0

> <PUBCHEM_ATOM_UDEF_STEREO_COUNT>
0

> <PUBCHEM_BOND_DEF_STEREO_COUNT>
0

> <PUBCHEM_BOND_UDEF_STEREO_COUNT>
0

> <PUBCHEM_ISOTOPIC_ATOM_COUNT>
0

> <PUBCHEM_COMPONENT_COUNT>
1

> <PUBCHEM_CACTVS_TAUTO_COUNT>
-1

> <PUBCHEM_COORDINATE_TYPE>
1
5
255

> <PUBCHEM_BONDANNOTATIONS>
14  15  8
14  20  8
15  18  8
18  22  8
20  23  8
22  23  8

$$$$
