24768519
  -OEChem-09292322462D

 77 80  0     1  0  0  0  0  0999 V2000
    8.1962    2.4827    0.0000 O   0  0  0  0  0  0  0  0  0  0  0  0
    6.4641   -2.5173    0.0000 N   0  0  0  0  0  0  0  0  0  0  0  0
    4.7320   -3.5173    0.0000 N   0  0  0  0  0  0  0  0  0  0  0  0
    9.9282    2.4827    0.0000 N   0  0  0  0  0  0  0  0  0  0  0  0
    5.5981   -2.0173    0.0000 C   0  0  0  0  0  0  0  0  0  0  0  0
    6.4641   -3.5173    0.0000 C   0  0  0  0  0  0  0  0  0  0  0  0
    4.7320   -2.5173    0.0000 C   0  0  0  0  0  0  0  0  0  0  0  0
    5.5981   -4.0173    0.0000 C   0  0  0  0  0  0  0  0  0  0  0  0
    7.3301   -2.0173    0.0000 C   0  0  0  0  0  0  0  0  0  0  0  0
    3.8660   -4.0173    0.0000 C   0  0  0  0  0  0  0  0  0  0  0  0
    3.0000   -2.5173    0.0000 C   0  0  0  0  0  0  0  0  0  0  0  0
    9.9282    3.4827    0.0000 C   0  0  3  0  0  0  0  0  0  0  0  0
    7.3301   -1.0173    0.0000 C   0  0  0  0  0  0  0  0  0  0  0  0
    3.0000   -3.5173    0.0000 C   0  0  0  0  0  0  0  0  0  0  0  0
    9.0622    3.9827    0.0000 C   0  0  0  0  0  0  0  0  0  0  0  0
    9.0622    4.9827    0.0000 C   0  0  0  0  0  0  0  0  0  0  0  0
    8.1962   -0.5173    0.0000 C   0  0  0  0  0  0  0  0  0  0  0  0
   10.7942    3.9827    0.0000 C   0  0  0  0  0  0  0  0  0  0  0  0
    9.9282    5.4827    0.0000 C   0  0  0  0  0  0  0  0  0  0  0  0
   10.7942    4.9827    0.0000 C   0  0  0  0  0  0  0  0  0  0  0  0
    8.1962    0.4827    0.0000 C   0  0  0  0  0  0  0  0  0  0  0  0
    3.8660   -5.0173    0.0000 C   0  0  0  0  0  0  0  0  0  0  0  0
    9.0622    0.9827    0.0000 C   0  0  0  0  0  0  0  0  0  0  0  0
    3.0000   -1.5173    0.0000 C   0  0  0  0  0  0  0  0  0  0  0  0
    2.0000   -2.5173    0.0000 C   0  0  0  0  0  0  0  0  0  0  0  0
    4.0000   -2.5173    0.0000 C   0  0  0  0  0  0  0  0  0  0  0  0
    2.1340   -4.0173    0.0000 C   0  0  0  0  0  0  0  0  0  0  0  0
    9.0622    1.9827    0.0000 C   0  0  0  0  0  0  0  0  0  0  0  0
   11.6882    3.4480    0.0000 C   0  0  0  0  0  0  0  0  0  0  0  0
   11.6882    5.5173    0.0000 C   0  0  0  0  0  0  0  0  0  0  0  0
    3.0000   -5.5173    0.0000 C   0  0  0  0  0  0  0  0  0  0  0  0
    2.1340   -5.0173    0.0000 C   0  0  0  0  0  0  0  0  0  0  0  0
   12.5942    3.9618    0.0000 C   0  0  0  0  0  0  0  0  0  0  0  0
   12.5942    5.0035    0.0000 C   0  0  0  0  0  0  0  0  0  0  0  0
    5.9966   -1.5424    0.0000 H   0  0  0  0  0  0  0  0  0  0  0  0
    5.1996   -1.5424    0.0000 H   0  0  0  0  0  0  0  0  0  0  0  0
    6.6762   -4.0999    0.0000 H   0  0  0  0  0  0  0  0  0  0  0  0
    7.0747   -3.4097    0.0000 H   0  0  0  0  0  0  0  0  0  0  0  0
    4.5200   -1.9347    0.0000 H   0  0  0  0  0  0  0  0  0  0  0  0
    4.1215   -2.6250    0.0000 H   0  0  0  0  0  0  0  0  0  0  0  0
    5.1996   -4.4923    0.0000 H   0  0  0  0  0  0  0  0  0  0  0  0
    5.9966   -4.4923    0.0000 H   0  0  0  0  0  0  0  0  0  0  0  0
    7.5422   -2.5999    0.0000 H   0  0  0  0  0  0  0  0  0  0  0  0
    7.9407   -1.9097    0.0000 H   0  0  0  0  0  0  0  0  0  0  0  0
   10.4651    3.1727    0.0000 H   0  0  0  0  0  0  0  0  0  0  0  0
    7.1181   -0.4347    0.0000 H   0  0  0  0  0  0  0  0  0  0  0  0
    6.7196   -1.1250    0.0000 H   0  0  0  0  0  0  0  0  0  0  0  0
    8.4516    4.0903    0.0000 H   0  0  0  0  0  0  0  0  0  0  0  0
    8.8501    3.4001    0.0000 H   0  0  0  0  0  0  0  0  0  0  0  0
    8.8501    5.5653    0.0000 H   0  0  0  0  0  0  0  0  0  0  0  0
    8.4516    4.8750    0.0000 H   0  0  0  0  0  0  0  0  0  0  0  0
    8.4082   -1.0999    0.0000 H   0  0  0  0  0  0  0  0  0  0  0  0
    8.8067   -0.4097    0.0000 H   0  0  0  0  0  0  0  0  0  0  0  0
   10.3267    5.9576    0.0000 H   0  0  0  0  0  0  0  0  0  0  0  0
    9.5297    5.9576    0.0000 H   0  0  0  0  0  0  0  0  0  0  0  0
    7.9841    1.0653    0.0000 H   0  0  0  0  0  0  0  0  0  0  0  0
    7.5856    0.3750    0.0000 H   0  0  0  0  0  0  0  0  0  0  0  0
   10.4651    2.1727    0.0000 H   0  0  0  0  0  0  0  0  0  0  0  0
    4.4030   -5.3273    0.0000 H   0  0  0  0  0  0  0  0  0  0  0  0
    9.2742    0.4001    0.0000 H   0  0  0  0  0  0  0  0  0  0  0  0
    9.6728    1.0903    0.0000 H   0  0  0  0  0  0  0  0  0  0  0  0
    3.6200   -1.5173    0.0000 H   0  0  0  0  0  0  0  0  0  0  0  0
    3.0000   -0.8973    0.0000 H   0  0  0  0  0  0  0  0  0  0  0  0
    2.3800   -1.5173    0.0000 H   0  0  0  0  0  0  0  0  0  0  0  0
    2.0000   -1.8973    0.0000 H   0  0  0  0  0  0  0  0  0  0  0  0
    1.3800   -2.5173    0.0000 H   0  0  0  0  0  0  0  0  0  0  0  0
    2.0000   -3.1373    0.0000 H   0  0  0  0  0  0  0  0  0  0  0  0
    4.0000   -3.1373    0.0000 H   0  0  0  0  0  0  0  0  0  0  0  0
    4.6200   -2.5173    0.0000 H   0  0  0  0  0  0  0  0  0  0  0  0
    4.0000   -1.8973    0.0000 H   0  0  0  0  0  0  0  0  0  0  0  0
    1.5970   -3.7073    0.0000 H   0  0  0  0  0  0  0  0  0  0  0  0
   11.6810    2.8280    0.0000 H   0  0  0  0  0  0  0  0  0  0  0  0
   11.6810    6.1373    0.0000 H   0  0  0  0  0  0  0  0  0  0  0  0
    3.0000   -6.1373    0.0000 H   0  0  0  0  0  0  0  0  0  0  0  0
    1.5970   -5.3273    0.0000 H   0  0  0  0  0  0  0  0  0  0  0  0
   13.1300    3.6498    0.0000 H   0  0  0  0  0  0  0  0  0  0  0  0
   13.1300    5.3156    0.0000 H   0  0  0  0  0  0  0  0  0  0  0  0
  1 28  2  0  0  0  0
  2  5  1  0  0  0  0
  2  6  1  0  0  0  0
  2  9  1  0  0  0  0
  3  7  1  0  0  0  0
  3  8  1  0  0  0  0
  3 10  1  0  0  0  0
  4 12  1  0  0  0  0
  4 28  1  0  0  0  0
  4 58  1  0  0  0  0
  5  7  1  0  0  0  0
  5 35  1  0  0  0  0
  5 36  1  0  0  0  0
  6  8  1  0  0  0  0
  6 37  1  0  0  0  0
  6 38  1  0  0  0  0
  7 39  1  0  0  0  0
  7 40  1  0  0  0  0
  8 41  1  0  0  0  0
  8 42  1  0  0  0  0
  9 13  1  0  0  0  0
  9 43  1  0  0  0  0
  9 44  1  0  0  0  0
 10 14  1  0  0  0  0
 10 22  2  0  0  0  0
 11 14  1  0  0  0  0
 11 24  1  0  0  0  0
 11 25  1  0  0  0  0
 11 26  1  0  0  0  0
 12 15  1  0  0  0  0
 12 18  1  0  0  0  0
 12 45  1  0  0  0  0
 13 17  1  0  0  0  0
 13 46  1  0  0  0  0
 13 47  1  0  0  0  0
 14 27  2  0  0  0  0
 15 16  1  0  0  0  0
 15 48  1  0  0  0  0
 15 49  1  0  0  0  0
 16 19  1  0  0  0  0
 16 50  1  0  0  0  0
 16 51  1  0  0  0  0
 17 21  1  0  0  0  0
 17 52  1  0  0  0  0
 17 53  1  0  0  0  0
 18 20  1  0  0  0  0
 18 29  2  0  0  0  0
 19 20  1  0  0  0  0
 19 54  1  0  0  0  0
 19 55  1  0  0  0  0
 20 30  2  0  0  0  0
 21 23  1  0  0  0  0
 21 56  1  0  0  0  0
 21 57  1  0  0  0  0
 22 31  1  0  0  0  0
 22 59  1  0  0  0  0
 23 28  1  0  0  0  0
 23 60  1  0  0  0  0
 23 61  1  0  0  0  0
 24 62  1  0  0  0  0
 24 63  1  0  0  0  0
 24 64  1  0  0  0  0
 25 65  1  0  0  0  0
 25 66  1  0  0  0  0
 25 67  1  0  0  0  0
 26 68  1  0  0  0  0
 26 69  1  0  0  0  0
 26 70  1  0  0  0  0
 27 32  1  0  0  0  0
 27 71  1  0  0  0  0
 29 33  1  0  0  0  0
 29 72  1  0  0  0  0
 30 34  1  0  0  0  0
 30 73  1  0  0  0  0
 31 32  2  0  0  0  0
 31 74  1  0  0  0  0
 32 75  1  0  0  0  0
 33 34  2  0  0  0  0
 33 76  1  0  0  0  0
 34 77  1  0  0  0  0
M  END
> <PUBCHEM_COMPOUND_CID>
24768519

> <PUBCHEM_COMPOUND_CANONICALIZED>
1

> <PUBCHEM_CACTVS_COMPLEXITY>
621

> <PUBCHEM_CACTVS_HBOND_ACCEPTOR>
3

> <PUBCHEM_CACTVS_HBOND_DONOR>
1

> <PUBCHEM_CACTVS_ROTATABLE_BOND>
9

> <PUBCHEM_CACTVS_SUBSKEYS>
AAADcfB7IAAAAAAAAAAAAAAAAAAAAAAAAAA8YMEAAAAAAADBQAAAHgAQAAAADijBmAQywIPAAACIAiVSUACCAAAhAgAIiIEIZIgIYDLAkZGUIAhglgDIyAcYiMAPgAAAAAASAAAAAACAACQAAAAAAAAAAA==

> <PUBCHEM_IUPAC_OPENEYE_NAME>
6-[4-(2-tert-butylphenyl)piperazin-1-yl]-N-tetralin-1-yl-hexanamide

> <PUBCHEM_IUPAC_CAS_NAME>
6-[4-(2-tert-butylphenyl)-1-piperazinyl]-N-(1,2,3,4-tetrahydronaphthalen-1-yl)hexanamide

> <PUBCHEM_IUPAC_NAME_MARKUP>
6-[4-(2-<I>tert</I>-butylphenyl)piperazin-1-yl]-<I>N</I>-(1,2,3,4-tetrahydronaphthalen-1-yl)hexanamide

> <PUBCHEM_IUPAC_NAME>
6-[4-(2-tert-butylphenyl)piperazin-1-yl]-N-(1,2,3,4-tetrahydronaphthalen-1-yl)hexanamide

> <PUBCHEM_IUPAC_SYSTEMATIC_NAME>
6-[4-(2-tert-butylphenyl)piperazin-1-yl]-N-(1,2,3,4-tetrahydronaphthalen-1-yl)hexanamide

> <PUBCHEM_IUPAC_TRADITIONAL_NAME>
6-[4-(2-tert-butylphenyl)piperazino]-N-tetralin-1-yl-hexanamide

> <PUBCHEM_IUPAC_INCHI>
InChI=1S/C30H43N3O/c1-30(2,3)26-15-8-9-17-28(26)33-22-20-32(21-23-33)19-10-4-5-18-29(34)31-27-16-11-13-24-12-6-7-14-25(24)27/h6-9,12,14-15,17,27H,4-5,10-11,13,16,18-23H2,1-3H3,(H,31,34)

> <PUBCHEM_IUPAC_INCHIKEY>
BLCHSWWAUDRFLL-UHFFFAOYSA-N

> <PUBCHEM_XLOGP3_AA>
6.1

> <PUBCHEM_EXACT_MASS>
461.340613004

> <PUBCHEM_MOLECULAR_FORMULA>
C30H43N3O

> <PUBCHEM_MOLECULAR_WEIGHT>
461.7

> <PUBCHEM_OPENEYE_CAN_SMILES>
CC(C)(C)C1=CC=CC=C1N2CCN(CC2)CCCCCC(=O)NC3CCCC4=CC=CC=C34

> <PUBCHEM_OPENEYE_ISO_SMILES>
CC(C)(C)C1=CC=CC=C1N2CCN(CC2)CCCCCC(=O)NC3CCCC4=CC=CC=C34

> <PUBCHEM_CACTVS_TPSA>
35.6

> <PUBCHEM_MONOISOTOPIC_WEIGHT>
461.340613004

> <PUBCHEM_TOTAL_CHARGE>
0

> <PUBCHEM_HEAVY_ATOM_COUNT>
34

> <PUBCHEM_ATOM_DEF_STEREO_COUNT>
0

> <PUBCHEM_ATOM_UDEF_STEREO_COUNT>
1

> <PUBCHEM_BOND_DEF_STEREO_COUNT>
0

> <PUBCHEM_BOND_UDEF_STEREO_COUNT>
0

> <PUBCHEM_ISOTOPIC_ATOM_COUNT>
0

> <PUBCHEM_COMPONENT_COUNT>
1

> <PUBCHEM_CACTVS_TAUTO_COUNT>
-1

> <PUBCHEM_COORDINATE_TYPE>
1
5
255

> <PUBCHEM_BONDANNOTATIONS>
10  14  8
10  22  8
14  27  8
18  20  8
18  29  8
20  30  8
22  31  8
27  32  8
29  33  8
30  34  8
31  32  8
33  34  8
12  4  3

$$$$
