44353432
  -OEChem-09292322202D

 65 67  0     1  0  0  0  0  0999 V2000
    2.3660   -1.7147    0.0000 F   0  0  0  0  0  0  0  0  0  0  0  0
    2.0000   -3.0807    0.0000 F   0  0  0  0  0  0  0  0  0  0  0  0
    3.3660   -3.4468    0.0000 F   0  0  0  0  0  0  0  0  0  0  0  0
    8.9282   -2.0807    0.0000 O   0  0  0  0  0  0  0  0  0  0  0  0
   12.4583    0.9434    0.0000 N   0  0  0  0  0  0  0  0  0  0  0  0
   11.5942    0.4401    0.0000 C   0  0  2  0  0  0  0  0  0  0  0  0
   11.5942   -0.6015    0.0000 C   0  0  0  0  0  0  0  0  0  0  0  0
   10.6882    0.9539    0.0000 C   0  0  0  0  0  0  0  0  0  0  0  0
   10.6882   -1.1154    0.0000 C   0  0  0  0  0  0  0  0  0  0  0  0
    9.7942    0.4193    0.0000 C   0  0  0  0  0  0  0  0  0  0  0  0
    9.7942   -0.5807    0.0000 C   0  0  0  0  0  0  0  0  0  0  0  0
   13.3263    0.4468    0.0000 C   0  0  0  0  0  0  0  0  0  0  0  0
   12.4545    1.9434    0.0000 C   0  0  0  0  0  0  0  0  0  0  0  0
    8.9282   -1.0807    0.0000 C   0  0  0  0  0  0  0  0  0  0  0  0
    8.9282    0.9193    0.0000 C   0  0  0  0  0  0  0  0  0  0  0  0
    8.0622   -0.5807    0.0000 C   0  0  0  0  0  0  0  0  0  0  0  0
   14.1904    0.9501    0.0000 C   0  0  0  0  0  0  0  0  0  0  0  0
   13.3186    2.4468    0.0000 C   0  0  0  0  0  0  0  0  0  0  0  0
    8.0622    0.4193    0.0000 C   0  0  0  0  0  0  0  0  0  0  0  0
    7.1962   -1.0807    0.0000 C   0  0  0  0  0  0  0  0  0  0  0  0
   15.0583    0.4534    0.0000 C   0  0  0  0  0  0  0  0  0  0  0  0
   13.3147    3.4468    0.0000 C   0  0  0  0  0  0  0  0  0  0  0  0
    6.3301   -0.5807    0.0000 C   0  0  0  0  0  0  0  0  0  0  0  0
    5.4641   -1.0807    0.0000 C   0  0  0  0  0  0  0  0  0  0  0  0
    8.0622   -2.5807    0.0000 C   0  0  0  0  0  0  0  0  0  0  0  0
    5.4641   -2.0807    0.0000 C   0  0  0  0  0  0  0  0  0  0  0  0
    4.5981   -0.5807    0.0000 C   0  0  0  0  0  0  0  0  0  0  0  0
    4.5981   -2.5807    0.0000 C   0  0  0  0  0  0  0  0  0  0  0  0
    3.7320   -1.0807    0.0000 C   0  0  0  0  0  0  0  0  0  0  0  0
    3.7320   -2.0807    0.0000 C   0  0  0  0  0  0  0  0  0  0  0  0
    2.8660   -2.5807    0.0000 C   0  0  0  0  0  0  0  0  0  0  0  0
   11.5907    1.0601    0.0000 H   0  0  0  0  0  0  0  0  0  0  0  0
   11.8033   -1.1852    0.0000 H   0  0  0  0  0  0  0  0  0  0  0  0
   12.2051   -0.4954    0.0000 H   0  0  0  0  0  0  0  0  0  0  0  0
   11.0818    1.4330    0.0000 H   0  0  0  0  0  0  0  0  0  0  0  0
   10.2836    1.4237    0.0000 H   0  0  0  0  0  0  0  0  0  0  0  0
   10.2836   -1.5852    0.0000 H   0  0  0  0  0  0  0  0  0  0  0  0
   11.0818   -1.5944    0.0000 H   0  0  0  0  0  0  0  0  0  0  0  0
   12.9296   -0.0297    0.0000 H   0  0  0  0  0  0  0  0  0  0  0  0
   13.7266   -0.0266    0.0000 H   0  0  0  0  0  0  0  0  0  0  0  0
   12.2402    2.5252    0.0000 H   0  0  0  0  0  0  0  0  0  0  0  0
   11.8443    1.8334    0.0000 H   0  0  0  0  0  0  0  0  0  0  0  0
    8.9282    1.5393    0.0000 H   0  0  0  0  0  0  0  0  0  0  0  0
   14.5871    1.4266    0.0000 H   0  0  0  0  0  0  0  0  0  0  0  0
   13.7900    1.4235    0.0000 H   0  0  0  0  0  0  0  0  0  0  0  0
   13.5329    1.8650    0.0000 H   0  0  0  0  0  0  0  0  0  0  0  0
   13.9287    2.5568    0.0000 H   0  0  0  0  0  0  0  0  0  0  0  0
    7.5252    0.7293    0.0000 H   0  0  0  0  0  0  0  0  0  0  0  0
    6.7976   -1.5557    0.0000 H   0  0  0  0  0  0  0  0  0  0  0  0
    7.5947   -1.5557    0.0000 H   0  0  0  0  0  0  0  0  0  0  0  0
   14.7504   -0.0847    0.0000 H   0  0  0  0  0  0  0  0  0  0  0  0
   15.5964    0.1455    0.0000 H   0  0  0  0  0  0  0  0  0  0  0  0
   15.3662    0.9916    0.0000 H   0  0  0  0  0  0  0  0  0  0  0  0
   13.9347    3.4491    0.0000 H   0  0  0  0  0  0  0  0  0  0  0  0
   13.3123    4.0667    0.0000 H   0  0  0  0  0  0  0  0  0  0  0  0
   12.6947    3.4444    0.0000 H   0  0  0  0  0  0  0  0  0  0  0  0
    6.7287   -0.1058    0.0000 H   0  0  0  0  0  0  0  0  0  0  0  0
    5.9316   -0.1058    0.0000 H   0  0  0  0  0  0  0  0  0  0  0  0
    7.7522   -2.0438    0.0000 H   0  0  0  0  0  0  0  0  0  0  0  0
    7.5252   -2.8907    0.0000 H   0  0  0  0  0  0  0  0  0  0  0  0
    8.3722   -3.1177    0.0000 H   0  0  0  0  0  0  0  0  0  0  0  0
    6.0010   -2.3907    0.0000 H   0  0  0  0  0  0  0  0  0  0  0  0
    4.5981    0.0393    0.0000 H   0  0  0  0  0  0  0  0  0  0  0  0
    4.5981   -3.2007    0.0000 H   0  0  0  0  0  0  0  0  0  0  0  0
    3.1951   -0.7707    0.0000 H   0  0  0  0  0  0  0  0  0  0  0  0
  1 31  1  0  0  0  0
  2 31  1  0  0  0  0
  3 31  1  0  0  0  0
  4 14  1  0  0  0  0
  4 25  1  0  0  0  0
  6  5  1  6  0  0  0
  5 12  1  0  0  0  0
  5 13  1  0  0  0  0
  6  7  1  0  0  0  0
  6  8  1  0  0  0  0
  6 32  1  0  0  0  0
  7  9  1  0  0  0  0
  7 33  1  0  0  0  0
  7 34  1  0  0  0  0
  8 10  1  0  0  0  0
  8 35  1  0  0  0  0
  8 36  1  0  0  0  0
  9 11  1  0  0  0  0
  9 37  1  0  0  0  0
  9 38  1  0  0  0  0
 10 11  2  0  0  0  0
 10 15  1  0  0  0  0
 11 14  1  0  0  0  0
 12 17  1  0  0  0  0
 12 39  1  0  0  0  0
 12 40  1  0  0  0  0
 13 18  1  0  0  0  0
 13 41  1  0  0  0  0
 13 42  1  0  0  0  0
 14 16  2  0  0  0  0
 15 19  2  0  0  0  0
 15 43  1  0  0  0  0
 16 19  1  0  0  0  0
 16 20  1  0  0  0  0
 17 21  1  0  0  0  0
 17 44  1  0  0  0  0
 17 45  1  0  0  0  0
 18 22  1  0  0  0  0
 18 46  1  0  0  0  0
 18 47  1  0  0  0  0
 19 48  1  0  0  0  0
 20 23  1  0  0  0  0
 20 49  1  0  0  0  0
 20 50  1  0  0  0  0
 21 51  1  0  0  0  0
 21 52  1  0  0  0  0
 21 53  1  0  0  0  0
 22 54  1  0  0  0  0
 22 55  1  0  0  0  0
 22 56  1  0  0  0  0
 23 24  1  0  0  0  0
 23 57  1  0  0  0  0
 23 58  1  0  0  0  0
 24 26  2  0  0  0  0
 24 27  1  0  0  0  0
 25 59  1  0  0  0  0
 25 60  1  0  0  0  0
 25 61  1  0  0  0  0
 26 28  1  0  0  0  0
 26 62  1  0  0  0  0
 27 29  2  0  0  0  0
 27 63  1  0  0  0  0
 28 30  2  0  0  0  0
 28 64  1  0  0  0  0
 29 30  1  0  0  0  0
 29 65  1  0  0  0  0
 30 31  1  0  0  0  0
M  END
> <PUBCHEM_COMPOUND_CID>
44353432

> <PUBCHEM_COMPOUND_CANONICALIZED>
1

> <PUBCHEM_CACTVS_COMPLEXITY>
511

> <PUBCHEM_CACTVS_HBOND_ACCEPTOR>
5

> <PUBCHEM_CACTVS_HBOND_DONOR>
0

> <PUBCHEM_CACTVS_ROTATABLE_BOND>
9

> <PUBCHEM_CACTVS_SUBSKEYS>
AAADcfB6IYAAAAAAAAAAAAAAAAAAAAAAAAAwYMAAAAAAAADBQAAAHwAAAAAADCzBmBYyBoMABACAAiBCAAACCAAgIAAIiAAMCIgMJiKEsRuEMCAkwBGIqAeQ0PMOwAADAAAYAACQAAaAADAAAAAAAAAAAA==

> <PUBCHEM_IUPAC_OPENEYE_NAME>
(2R)-5-methoxy-N,N-dipropyl-6-[2-[4-(trifluoromethyl)phenyl]ethyl]tetralin-2-amine

> <PUBCHEM_IUPAC_CAS_NAME>
(2R)-5-methoxy-N,N-dipropyl-6-[2-[4-(trifluoromethyl)phenyl]ethyl]-1,2,3,4-tetrahydronaphthalen-2-amine

> <PUBCHEM_IUPAC_NAME_MARKUP>
(2<I>R</I>)-5-methoxy-<I>N</I>,<I>N</I>-dipropyl-6-[2-[4-(trifluoromethyl)phenyl]ethyl]-1,2,3,4-tetrahydronaphthalen-2-amine

> <PUBCHEM_IUPAC_NAME>
(2R)-5-methoxy-N,N-dipropyl-6-[2-[4-(trifluoromethyl)phenyl]ethyl]-1,2,3,4-tetrahydronaphthalen-2-amine

> <PUBCHEM_IUPAC_SYSTEMATIC_NAME>
(2R)-5-methoxy-N,N-dipropyl-6-[2-[4-(trifluoromethyl)phenyl]ethyl]-1,2,3,4-tetrahydronaphthalen-2-amine

> <PUBCHEM_IUPAC_TRADITIONAL_NAME>
[(2R)-5-methoxy-6-[2-[4-(trifluoromethyl)phenyl]ethyl]tetralin-2-yl]-dipropyl-amine

> <PUBCHEM_IUPAC_INCHI>
InChI=1S/C26H34F3NO/c1-4-16-30(17-5-2)23-14-15-24-21(18-23)11-10-20(25(24)31-3)9-6-19-7-12-22(13-8-19)26(27,28)29/h7-8,10-13,23H,4-6,9,14-18H2,1-3H3/t23-/m1/s1

> <PUBCHEM_IUPAC_INCHIKEY>
AJHTXXXNOZVOOI-HSZRJFAPSA-N

> <PUBCHEM_XLOGP3_AA>
7.5

> <PUBCHEM_EXACT_MASS>
433.25924919

> <PUBCHEM_MOLECULAR_FORMULA>
C26H34F3NO

> <PUBCHEM_MOLECULAR_WEIGHT>
433.5

> <PUBCHEM_OPENEYE_CAN_SMILES>
CCCN(CCC)C1CCC2=C(C1)C=CC(=C2OC)CCC3=CC=C(C=C3)C(F)(F)F

> <PUBCHEM_OPENEYE_ISO_SMILES>
CCCN(CCC)[C@@H]1CCC2=C(C1)C=CC(=C2OC)CCC3=CC=C(C=C3)C(F)(F)F

> <PUBCHEM_CACTVS_TPSA>
12.5

> <PUBCHEM_MONOISOTOPIC_WEIGHT>
433.25924919

> <PUBCHEM_TOTAL_CHARGE>
0

> <PUBCHEM_HEAVY_ATOM_COUNT>
31

> <PUBCHEM_ATOM_DEF_STEREO_COUNT>
1

> <PUBCHEM_ATOM_UDEF_STEREO_COUNT>
0

> <PUBCHEM_BOND_DEF_STEREO_COUNT>
0

> <PUBCHEM_BOND_UDEF_STEREO_COUNT>
0

> <PUBCHEM_ISOTOPIC_ATOM_COUNT>
0

> <PUBCHEM_COMPONENT_COUNT>
1

> <PUBCHEM_CACTVS_TAUTO_COUNT>
-1

> <PUBCHEM_COORDINATE_TYPE>
1
5
255

> <PUBCHEM_BONDANNOTATIONS>
10  11  8
10  15  8
11  14  8
14  16  8
15  19  8
16  19  8
24  26  8
24  27  8
26  28  8
27  29  8
28  30  8
29  30  8
6  5  6

$$$$
