132256754
  -OEChem-09292322452D

 50 52  0     0  0  0  0  0  0999 V2000
    2.0000   -2.6651    0.0000 Cl  0  0  0  0  0  0  0  0  0  0  0  0
   11.9641    4.6651    0.0000 Cl  0  0  0  0  0  0  0  0  0  0  0  0
    4.9641    1.2010    0.0000 F   0  0  0  0  0  0  0  0  0  0  0  0
    2.0000   -4.6651    0.0000 F   0  0  0  0  0  0  0  0  0  0  0  0
    6.3301   -3.1651    0.0000 O   0  0  0  0  0  0  0  0  0  0  0  0
    8.9641    2.9330    0.0000 O   0  0  0  0  0  0  0  0  0  0  0  0
    5.4641   -1.6651    0.0000 N   0  0  0  0  0  0  0  0  0  0  0  0
    6.9641    1.2010    0.0000 N   0  0  0  0  0  0  0  0  0  0  0  0
   10.4641    3.7990    0.0000 N   0  0  0  0  0  0  0  0  0  0  0  0
    5.4641    0.3349    0.0000 C   0  0  0  0  0  0  0  0  0  0  0  0
    4.5981   -0.1651    0.0000 C   0  0  0  0  0  0  0  0  0  0  0  0
    6.3301   -0.1651    0.0000 C   0  0  0  0  0  0  0  0  0  0  0  0
    4.5981   -1.1651    0.0000 C   0  0  0  0  0  0  0  0  0  0  0  0
    6.3301   -1.1651    0.0000 C   0  0  0  0  0  0  0  0  0  0  0  0
    5.9641    1.2010    0.0000 C   0  0  0  0  0  0  0  0  0  0  0  0
    5.4641   -2.6651    0.0000 C   0  0  0  0  0  0  0  0  0  0  0  0
    7.4641    2.0670    0.0000 C   0  0  0  0  0  0  0  0  0  0  0  0
    4.5981   -3.1651    0.0000 C   0  0  0  0  0  0  0  0  0  0  0  0
    8.4641    2.0670    0.0000 C   0  0  0  0  0  0  0  0  0  0  0  0
    3.7320   -2.6651    0.0000 C   0  0  0  0  0  0  0  0  0  0  0  0
    4.5981   -4.1651    0.0000 C   0  0  0  0  0  0  0  0  0  0  0  0
    2.8660   -3.1651    0.0000 C   0  0  0  0  0  0  0  0  0  0  0  0
    3.7320   -4.6651    0.0000 C   0  0  0  0  0  0  0  0  0  0  0  0
    2.8660   -4.1651    0.0000 C   0  0  0  0  0  0  0  0  0  0  0  0
    9.9641    2.9330    0.0000 C   0  0  0  0  0  0  0  0  0  0  0  0
   10.4641    2.0670    0.0000 C   0  0  0  0  0  0  0  0  0  0  0  0
   11.4641    2.0670    0.0000 C   0  0  0  0  0  0  0  0  0  0  0  0
   11.4641    3.7990    0.0000 C   0  0  0  0  0  0  0  0  0  0  0  0
   11.9641    2.9330    0.0000 C   0  0  0  0  0  0  0  0  0  0  0  0
    4.3860    0.4175    0.0000 H   0  0  0  0  0  0  0  0  0  0  0  0
    3.9875   -0.2727    0.0000 H   0  0  0  0  0  0  0  0  0  0  0  0
    6.9407   -0.2727    0.0000 H   0  0  0  0  0  0  0  0  0  0  0  0
    6.5422    0.4175    0.0000 H   0  0  0  0  0  0  0  0  0  0  0  0
    3.9875   -1.0574    0.0000 H   0  0  0  0  0  0  0  0  0  0  0  0
    4.3860   -1.7477    0.0000 H   0  0  0  0  0  0  0  0  0  0  0  0
    6.5422   -1.7477    0.0000 H   0  0  0  0  0  0  0  0  0  0  0  0
    6.9407   -1.0574    0.0000 H   0  0  0  0  0  0  0  0  0  0  0  0
    6.0718    1.8115    0.0000 H   0  0  0  0  0  0  0  0  0  0  0  0
    5.3815    1.4130    0.0000 H   0  0  0  0  0  0  0  0  0  0  0  0
    7.2741    0.6640    0.0000 H   0  0  0  0  0  0  0  0  0  0  0  0
    7.5718    2.6776    0.0000 H   0  0  0  0  0  0  0  0  0  0  0  0
    6.8815    2.2790    0.0000 H   0  0  0  0  0  0  0  0  0  0  0  0
    8.3564    1.4564    0.0000 H   0  0  0  0  0  0  0  0  0  0  0  0
    9.0467    1.8549    0.0000 H   0  0  0  0  0  0  0  0  0  0  0  0
    3.7320   -2.0451    0.0000 H   0  0  0  0  0  0  0  0  0  0  0  0
    5.1350   -4.4751    0.0000 H   0  0  0  0  0  0  0  0  0  0  0  0
    3.7320   -5.2851    0.0000 H   0  0  0  0  0  0  0  0  0  0  0  0
   10.1541    1.5300    0.0000 H   0  0  0  0  0  0  0  0  0  0  0  0
   11.7741    1.5300    0.0000 H   0  0  0  0  0  0  0  0  0  0  0  0
   12.5841    2.9330    0.0000 H   0  0  0  0  0  0  0  0  0  0  0  0
  1 22  1  0  0  0  0
  2 28  1  0  0  0  0
  3 10  1  0  0  0  0
  4 24  1  0  0  0  0
  5 16  2  0  0  0  0
  6 19  1  0  0  0  0
  6 25  1  0  0  0  0
  7 13  1  0  0  0  0
  7 14  1  0  0  0  0
  7 16  1  0  0  0  0
  8 15  1  0  0  0  0
  8 17  1  0  0  0  0
  8 40  1  0  0  0  0
  9 25  2  0  0  0  0
  9 28  1  0  0  0  0
 10 11  1  0  0  0  0
 10 12  1  0  0  0  0
 10 15  1  0  0  0  0
 11 13  1  0  0  0  0
 11 30  1  0  0  0  0
 11 31  1  0  0  0  0
 12 14  1  0  0  0  0
 12 32  1  0  0  0  0
 12 33  1  0  0  0  0
 13 34  1  0  0  0  0
 13 35  1  0  0  0  0
 14 36  1  0  0  0  0
 14 37  1  0  0  0  0
 15 38  1  0  0  0  0
 15 39  1  0  0  0  0
 16 18  1  0  0  0  0
 17 19  1  0  0  0  0
 17 41  1  0  0  0  0
 17 42  1  0  0  0  0
 18 20  2  0  0  0  0
 18 21  1  0  0  0  0
 19 43  1  0  0  0  0
 19 44  1  0  0  0  0
 20 22  1  0  0  0  0
 20 45  1  0  0  0  0
 21 23  2  0  0  0  0
 21 46  1  0  0  0  0
 22 24  2  0  0  0  0
 23 24  1  0  0  0  0
 23 47  1  0  0  0  0
 25 26  1  0  0  0  0
 26 27  2  0  0  0  0
 26 48  1  0  0  0  0
 27 29  1  0  0  0  0
 27 49  1  0  0  0  0
 28 29  2  0  0  0  0
 29 50  1  0  0  0  0
M  END
> <PUBCHEM_COMPOUND_CID>
132256754

> <PUBCHEM_COMPOUND_CANONICALIZED>
1

> <PUBCHEM_CACTVS_COMPLEXITY>
538

> <PUBCHEM_CACTVS_HBOND_ACCEPTOR>
6

> <PUBCHEM_CACTVS_HBOND_DONOR>
1

> <PUBCHEM_CACTVS_ROTATABLE_BOND>
7

> <PUBCHEM_CACTVS_SUBSKEYS>
AAADceB7MYAGAAAAAAAAAAAAAAAAAAAAAAA8WIAAAAAAAAABwAAAHwIQAAAADALhmi4whJPIFACoAiFyVACCiCAlJyAImKE+btgOJvLFt5uPOSjk1hHY6YeYmACOAAAAIAAAAAAAAABAAAAAAAAAAAAAAA==

> <PUBCHEM_IUPAC_OPENEYE_NAME>
(3-chloro-4-fluoro-phenyl)-[4-[[2-[(6-chloro-2-pyridyl)oxy]ethylamino]methyl]-4-fluoro-1-piperidyl]methanone

> <PUBCHEM_IUPAC_CAS_NAME>
(3-chloro-4-fluorophenyl)-[4-[[2-[(6-chloro-2-pyridinyl)oxy]ethylamino]methyl]-4-fluoro-1-piperidinyl]methanone

> <PUBCHEM_IUPAC_NAME_MARKUP>
(3-chloro-4-fluorophenyl)-[4-[[2-(6-chloropyridin-2-yl)oxyethylamino]methyl]-4-fluoropiperidin-1-yl]methanone

> <PUBCHEM_IUPAC_NAME>
(3-chloro-4-fluorophenyl)-[4-[[2-(6-chloropyridin-2-yl)oxyethylamino]methyl]-4-fluoropiperidin-1-yl]methanone

> <PUBCHEM_IUPAC_SYSTEMATIC_NAME>
(3-chloranyl-4-fluoranyl-phenyl)-[4-[[2-(6-chloranylpyridin-2-yl)oxyethylamino]methyl]-4-fluoranyl-piperidin-1-yl]methanone

> <PUBCHEM_IUPAC_TRADITIONAL_NAME>
(3-chloro-4-fluoro-phenyl)-[4-[[2-[(6-chloro-2-pyridyl)oxy]ethylamino]methyl]-4-fluoro-piperidino]methanone

> <PUBCHEM_IUPAC_INCHI>
InChI=1S/C20H21Cl2F2N3O2/c21-15-12-14(4-5-16(15)23)19(28)27-9-6-20(24,7-10-27)13-25-8-11-29-18-3-1-2-17(22)26-18/h1-5,12,25H,6-11,13H2

> <PUBCHEM_IUPAC_INCHIKEY>
VTBXTDAXQSIVGY-UHFFFAOYSA-N

> <PUBCHEM_XLOGP3_AA>
4.3

> <PUBCHEM_EXACT_MASS>
443.0978886

> <PUBCHEM_MOLECULAR_FORMULA>
C20H21Cl2F2N3O2

> <PUBCHEM_MOLECULAR_WEIGHT>
444.3

> <PUBCHEM_OPENEYE_CAN_SMILES>
C1CN(CCC1(CNCCOC2=NC(=CC=C2)Cl)F)C(=O)C3=CC(=C(C=C3)F)Cl

> <PUBCHEM_OPENEYE_ISO_SMILES>
C1CN(CCC1(CNCCOC2=NC(=CC=C2)Cl)F)C(=O)C3=CC(=C(C=C3)F)Cl

> <PUBCHEM_CACTVS_TPSA>
54.5

> <PUBCHEM_MONOISOTOPIC_WEIGHT>
443.0978886

> <PUBCHEM_TOTAL_CHARGE>
0

> <PUBCHEM_HEAVY_ATOM_COUNT>
29

> <PUBCHEM_ATOM_DEF_STEREO_COUNT>
0

> <PUBCHEM_ATOM_UDEF_STEREO_COUNT>
0

> <PUBCHEM_BOND_DEF_STEREO_COUNT>
0

> <PUBCHEM_BOND_UDEF_STEREO_COUNT>
0

> <PUBCHEM_ISOTOPIC_ATOM_COUNT>
0

> <PUBCHEM_COMPONENT_COUNT>
1

> <PUBCHEM_CACTVS_TAUTO_COUNT>
-1

> <PUBCHEM_COORDINATE_TYPE>
1
5
255

> <PUBCHEM_BONDANNOTATIONS>
18  20  8
18  21  8
20  22  8
21  23  8
22  24  8
23  24  8
25  26  8
26  27  8
27  29  8
28  29  8
9  25  8
9  28  8

$$$$
