162668120
  -OEChem-09292322012D

128133  0     1  0  0  0  0  0999 V2000
   17.0728   -3.2998    0.0000 O   0  0  0  0  0  0  0  0  0  0  0  0
   12.8959    3.2998    0.0000 O   0  0  0  0  0  0  0  0  0  0  0  0
   15.9502   -0.9040    0.0000 O   0  0  0  0  0  0  0  0  0  0  0  0
   14.0185    0.9040    0.0000 O   0  0  0  0  0  0  0  0  0  0  0  0
   23.7068   -8.7885    0.0000 N   0  0  3  0  0  0  0  0  0  0  0  0
    6.2619    8.7885    0.0000 N   0  0  3  0  0  0  0  0  0  0  0  0
   20.6135   -5.2769    0.0000 N   0  0  0  0  0  0  0  0  0  0  0  0
    9.3551    5.2769    0.0000 N   0  0  0  0  0  0  0  0  0  0  0  0
   19.0044   -5.1078    0.0000 N   0  0  0  0  0  0  0  0  0  0  0  0
   10.9643    5.1078    0.0000 N   0  0  0  0  0  0  0  0  0  0  0  0
   19.8704   -4.6078    0.0000 N   0  0  0  0  0  0  0  0  0  0  0  0
   10.0983    4.6078    0.0000 N   0  0  0  0  0  0  0  0  0  0  0  0
   24.7068   -8.7885    0.0000 C   0  0  0  0  0  0  0  0  0  0  0  0
    5.2619    8.7885    0.0000 C   0  0  0  0  0  0  0  0  0  0  0  0
   25.2904   -7.9838    0.0000 C   0  0  0  0  0  0  0  0  0  0  0  0
   25.2904   -9.5933    0.0000 C   0  0  0  0  0  0  0  0  0  0  0  0
    4.6783    7.9838    0.0000 C   0  0  0  0  0  0  0  0  0  0  0  0
    4.6783    9.5933    0.0000 C   0  0  0  0  0  0  0  0  0  0  0  0
   26.2366   -8.2885    0.0000 C   0  0  0  0  0  0  0  0  0  0  0  0
   26.2366   -9.2885    0.0000 C   0  0  0  0  0  0  0  0  0  0  0  0
    3.7320    8.2885    0.0000 C   0  0  0  0  0  0  0  0  0  0  0  0
    3.7320    9.2885    0.0000 C   0  0  0  0  0  0  0  0  0  0  0  0
   23.2068   -7.9225    0.0000 C   0  0  0  0  0  0  0  0  0  0  0  0
    6.7619    7.9225    0.0000 C   0  0  0  0  0  0  0  0  0  0  0  0
   23.2068   -9.6546    0.0000 C   0  0  0  0  0  0  0  0  0  0  0  0
    6.7619    9.6546    0.0000 C   0  0  0  0  0  0  0  0  0  0  0  0
   22.2068   -7.9225    0.0000 C   0  0  0  0  0  0  0  0  0  0  0  0
    7.7619    7.9225    0.0000 C   0  0  0  0  0  0  0  0  0  0  0  0
   27.1027   -7.7885    0.0000 C   0  0  0  0  0  0  0  0  0  0  0  0
   27.1027   -9.7885    0.0000 C   0  0  0  0  0  0  0  0  0  0  0  0
    2.8660    7.7885    0.0000 C   0  0  0  0  0  0  0  0  0  0  0  0
    2.8660    9.7885    0.0000 C   0  0  0  0  0  0  0  0  0  0  0  0
   22.2068   -9.6546    0.0000 C   0  0  0  0  0  0  0  0  0  0  0  0
    7.7619    9.6546    0.0000 C   0  0  0  0  0  0  0  0  0  0  0  0
   21.7068   -7.0565    0.0000 C   0  0  0  0  0  0  0  0  0  0  0  0
    8.2619    7.0565    0.0000 C   0  0  0  0  0  0  0  0  0  0  0  0
   27.9687   -8.2885    0.0000 C   0  0  0  0  0  0  0  0  0  0  0  0
   27.9687   -9.2885    0.0000 C   0  0  0  0  0  0  0  0  0  0  0  0
    2.0000    8.2885    0.0000 C   0  0  0  0  0  0  0  0  0  0  0  0
    2.0000    9.2885    0.0000 C   0  0  0  0  0  0  0  0  0  0  0  0
   21.7068  -10.5206    0.0000 C   0  0  0  0  0  0  0  0  0  0  0  0
    8.2619   10.5206    0.0000 C   0  0  0  0  0  0  0  0  0  0  0  0
   20.7068   -7.0565    0.0000 C   0  0  0  0  0  0  0  0  0  0  0  0
    9.2619    7.0565    0.0000 C   0  0  0  0  0  0  0  0  0  0  0  0
   20.2068   -6.1904    0.0000 C   0  0  0  0  0  0  0  0  0  0  0  0
    9.7619    6.1904    0.0000 C   0  0  0  0  0  0  0  0  0  0  0  0
   19.2123   -6.0859    0.0000 C   0  0  0  0  0  0  0  0  0  0  0  0
   10.7564    6.0859    0.0000 C   0  0  0  0  0  0  0  0  0  0  0  0
   18.0908   -4.7010    0.0000 C   0  0  0  0  0  0  0  0  0  0  0  0
   11.8779    4.7010    0.0000 C   0  0  0  0  0  0  0  0  0  0  0  0
   17.9863   -3.7065    0.0000 C   0  0  0  0  0  0  0  0  0  0  0  0
   11.9824    3.7065    0.0000 C   0  0  0  0  0  0  0  0  0  0  0  0
   16.9682   -2.3053    0.0000 C   0  0  0  0  0  0  0  0  0  0  0  0
   13.0005    2.3053    0.0000 C   0  0  0  0  0  0  0  0  0  0  0  0
   16.0547   -1.8985    0.0000 C   0  0  0  0  0  0  0  0  0  0  0  0
   13.9140    1.8985    0.0000 C   0  0  0  0  0  0  0  0  0  0  0  0
   15.0366   -0.4973    0.0000 C   0  0  0  0  0  0  0  0  0  0  0  0
   14.9321    0.4973    0.0000 C   0  0  0  0  0  0  0  0  0  0  0  0
   24.4251   -8.2362    0.0000 H   0  0  0  0  0  0  0  0  0  0  0  0
    5.5436    8.2362    0.0000 H   0  0  0  0  0  0  0  0  0  0  0  0
   25.5415   -7.4169    0.0000 H   0  0  0  0  0  0  0  0  0  0  0  0
   24.7530   -7.6746    0.0000 H   0  0  0  0  0  0  0  0  0  0  0  0
   24.7530   -9.9025    0.0000 H   0  0  0  0  0  0  0  0  0  0  0  0
   25.5415  -10.1602    0.0000 H   0  0  0  0  0  0  0  0  0  0  0  0
    4.4272    7.4169    0.0000 H   0  0  0  0  0  0  0  0  0  0  0  0
    5.2156    7.6746    0.0000 H   0  0  0  0  0  0  0  0  0  0  0  0
    5.2156    9.9025    0.0000 H   0  0  0  0  0  0  0  0  0  0  0  0
    4.4272   10.1602    0.0000 H   0  0  0  0  0  0  0  0  0  0  0  0
   23.7894   -7.7104    0.0000 H   0  0  0  0  0  0  0  0  0  0  0  0
   23.0991   -7.3119    0.0000 H   0  0  0  0  0  0  0  0  0  0  0  0
    6.1793    7.7104    0.0000 H   0  0  0  0  0  0  0  0  0  0  0  0
    6.8695    7.3119    0.0000 H   0  0  0  0  0  0  0  0  0  0  0  0
   23.0991  -10.2651    0.0000 H   0  0  0  0  0  0  0  0  0  0  0  0
   23.7894   -9.8666    0.0000 H   0  0  0  0  0  0  0  0  0  0  0  0
    6.8695   10.2651    0.0000 H   0  0  0  0  0  0  0  0  0  0  0  0
    6.1793    9.8666    0.0000 H   0  0  0  0  0  0  0  0  0  0  0  0
   21.6242   -8.1346    0.0000 H   0  0  0  0  0  0  0  0  0  0  0  0
   22.3145   -8.5331    0.0000 H   0  0  0  0  0  0  0  0  0  0  0  0
    8.3445    8.1346    0.0000 H   0  0  0  0  0  0  0  0  0  0  0  0
    7.6542    8.5331    0.0000 H   0  0  0  0  0  0  0  0  0  0  0  0
   27.1027   -7.1685    0.0000 H   0  0  0  0  0  0  0  0  0  0  0  0
   27.1027  -10.4085    0.0000 H   0  0  0  0  0  0  0  0  0  0  0  0
    2.8660    7.1685    0.0000 H   0  0  0  0  0  0  0  0  0  0  0  0
    2.8660   10.4085    0.0000 H   0  0  0  0  0  0  0  0  0  0  0  0
   22.3145   -9.0440    0.0000 H   0  0  0  0  0  0  0  0  0  0  0  0
   21.6242   -9.4425    0.0000 H   0  0  0  0  0  0  0  0  0  0  0  0
    7.6542    9.0440    0.0000 H   0  0  0  0  0  0  0  0  0  0  0  0
    8.3445    9.4425    0.0000 H   0  0  0  0  0  0  0  0  0  0  0  0
   22.2894   -6.8444    0.0000 H   0  0  0  0  0  0  0  0  0  0  0  0
   21.5991   -6.4459    0.0000 H   0  0  0  0  0  0  0  0  0  0  0  0
    7.6793    6.8444    0.0000 H   0  0  0  0  0  0  0  0  0  0  0  0
    8.3695    6.4459    0.0000 H   0  0  0  0  0  0  0  0  0  0  0  0
   28.5056   -7.9785    0.0000 H   0  0  0  0  0  0  0  0  0  0  0  0
   28.5056   -9.5985    0.0000 H   0  0  0  0  0  0  0  0  0  0  0  0
    1.4631    7.9785    0.0000 H   0  0  0  0  0  0  0  0  0  0  0  0
    1.4631    9.5985    0.0000 H   0  0  0  0  0  0  0  0  0  0  0  0
   21.1699  -10.2106    0.0000 H   0  0  0  0  0  0  0  0  0  0  0  0
   21.3968  -11.0575    0.0000 H   0  0  0  0  0  0  0  0  0  0  0  0
   22.2437  -10.8306    0.0000 H   0  0  0  0  0  0  0  0  0  0  0  0
    8.7988   10.2106    0.0000 H   0  0  0  0  0  0  0  0  0  0  0  0
    8.5719   11.0575    0.0000 H   0  0  0  0  0  0  0  0  0  0  0  0
    7.7249   10.8306    0.0000 H   0  0  0  0  0  0  0  0  0  0  0  0
   20.1242   -7.2685    0.0000 H   0  0  0  0  0  0  0  0  0  0  0  0
   20.8145   -7.6671    0.0000 H   0  0  0  0  0  0  0  0  0  0  0  0
    9.8445    7.2685    0.0000 H   0  0  0  0  0  0  0  0  0  0  0  0
    9.1542    7.6671    0.0000 H   0  0  0  0  0  0  0  0  0  0  0  0
   18.7974   -6.5467    0.0000 H   0  0  0  0  0  0  0  0  0  0  0  0
   11.1713    6.5467    0.0000 H   0  0  0  0  0  0  0  0  0  0  0  0
   17.4723   -4.6578    0.0000 H   0  0  0  0  0  0  0  0  0  0  0  0
   17.9408   -5.3026    0.0000 H   0  0  0  0  0  0  0  0  0  0  0  0
   12.4963    4.6578    0.0000 H   0  0  0  0  0  0  0  0  0  0  0  0
   12.0279    5.3026    0.0000 H   0  0  0  0  0  0  0  0  0  0  0  0
   18.6048   -3.7498    0.0000 H   0  0  0  0  0  0  0  0  0  0  0  0
   18.1363   -3.1049    0.0000 H   0  0  0  0  0  0  0  0  0  0  0  0
   11.3639    3.7498    0.0000 H   0  0  0  0  0  0  0  0  0  0  0  0
   11.8324    3.1049    0.0000 H   0  0  0  0  0  0  0  0  0  0  0  0
   17.5867   -2.3485    0.0000 H   0  0  0  0  0  0  0  0  0  0  0  0
   17.1182   -1.7037    0.0000 H   0  0  0  0  0  0  0  0  0  0  0  0
   12.3820    2.3485    0.0000 H   0  0  0  0  0  0  0  0  0  0  0  0
   12.8505    1.7037    0.0000 H   0  0  0  0  0  0  0  0  0  0  0  0
   15.4362   -1.8553    0.0000 H   0  0  0  0  0  0  0  0  0  0  0  0
   15.9047   -2.5001    0.0000 H   0  0  0  0  0  0  0  0  0  0  0  0
   14.5325    1.8553    0.0000 H   0  0  0  0  0  0  0  0  0  0  0  0
   14.0640    2.5001    0.0000 H   0  0  0  0  0  0  0  0  0  0  0  0
   14.4181   -0.4540    0.0000 H   0  0  0  0  0  0  0  0  0  0  0  0
   14.8866   -1.0988    0.0000 H   0  0  0  0  0  0  0  0  0  0  0  0
   15.5506    0.4540    0.0000 H   0  0  0  0  0  0  0  0  0  0  0  0
   15.0821    1.0988    0.0000 H   0  0  0  0  0  0  0  0  0  0  0  0
  1 51  1  0  0  0  0
  1 53  1  0  0  0  0
  2 52  1  0  0  0  0
  2 54  1  0  0  0  0
  3 55  1  0  0  0  0
  3 57  1  0  0  0  0
  4 56  1  0  0  0  0
  4 58  1  0  0  0  0
  5 13  1  0  0  0  0
  5 23  1  0  0  0  0
  5 25  1  0  0  0  0
  6 14  1  0  0  0  0
  6 24  1  0  0  0  0
  6 26  1  0  0  0  0
  7 11  2  0  0  0  0
  7 45  1  0  0  0  0
  8 12  2  0  0  0  0
  8 46  1  0  0  0  0
  9 11  1  0  0  0  0
  9 47  1  0  0  0  0
  9 49  1  0  0  0  0
 10 12  1  0  0  0  0
 10 48  1  0  0  0  0
 10 50  1  0  0  0  0
 13 15  1  0  0  0  0
 13 16  1  0  0  0  0
 13 59  1  0  0  0  0
 14 17  1  0  0  0  0
 14 18  1  0  0  0  0
 14 60  1  0  0  0  0
 15 19  1  0  0  0  0
 15 61  1  0  0  0  0
 15 62  1  0  0  0  0
 16 20  1  0  0  0  0
 16 63  1  0  0  0  0
 16 64  1  0  0  0  0
 17 21  1  0  0  0  0
 17 65  1  0  0  0  0
 17 66  1  0  0  0  0
 18 22  1  0  0  0  0
 18 67  1  0  0  0  0
 18 68  1  0  0  0  0
 19 20  1  0  0  0  0
 19 29  2  0  0  0  0
 20 30  2  0  0  0  0
 21 22  1  0  0  0  0
 21 31  2  0  0  0  0
 22 32  2  0  0  0  0
 23 27  1  0  0  0  0
 23 69  1  0  0  0  0
 23 70  1  0  0  0  0
 24 28  1  0  0  0  0
 24 71  1  0  0  0  0
 24 72  1  0  0  0  0
 25 33  1  0  0  0  0
 25 73  1  0  0  0  0
 25 74  1  0  0  0  0
 26 34  1  0  0  0  0
 26 75  1  0  0  0  0
 26 76  1  0  0  0  0
 27 35  1  0  0  0  0
 27 77  1  0  0  0  0
 27 78  1  0  0  0  0
 28 36  1  0  0  0  0
 28 79  1  0  0  0  0
 28 80  1  0  0  0  0
 29 37  1  0  0  0  0
 29 81  1  0  0  0  0
 30 38  1  0  0  0  0
 30 82  1  0  0  0  0
 31 39  1  0  0  0  0
 31 83  1  0  0  0  0
 32 40  1  0  0  0  0
 32 84  1  0  0  0  0
 33 41  1  0  0  0  0
 33 85  1  0  0  0  0
 33 86  1  0  0  0  0
 34 42  1  0  0  0  0
 34 87  1  0  0  0  0
 34 88  1  0  0  0  0
 35 43  1  0  0  0  0
 35 89  1  0  0  0  0
 35 90  1  0  0  0  0
 36 44  1  0  0  0  0
 36 91  1  0  0  0  0
 36 92  1  0  0  0  0
 37 38  2  0  0  0  0
 37 93  1  0  0  0  0
 38 94  1  0  0  0  0
 39 40  2  0  0  0  0
 39 95  1  0  0  0  0
 40 96  1  0  0  0  0
 41 97  1  0  0  0  0
 41 98  1  0  0  0  0
 41 99  1  0  0  0  0
 42100  1  0  0  0  0
 42101  1  0  0  0  0
 42102  1  0  0  0  0
 43 45  1  0  0  0  0
 43103  1  0  0  0  0
 43104  1  0  0  0  0
 44 46  1  0  0  0  0
 44105  1  0  0  0  0
 44106  1  0  0  0  0
 45 47  2  0  0  0  0
 46 48  2  0  0  0  0
 47107  1  0  0  0  0
 48108  1  0  0  0  0
 49 51  1  0  0  0  0
 49109  1  0  0  0  0
 49110  1  0  0  0  0
 50 52  1  0  0  0  0
 50111  1  0  0  0  0
 50112  1  0  0  0  0
 51113  1  0  0  0  0
 51114  1  0  0  0  0
 52115  1  0  0  0  0
 52116  1  0  0  0  0
 53 55  1  0  0  0  0
 53117  1  0  0  0  0
 53118  1  0  0  0  0
 54 56  1  0  0  0  0
 54119  1  0  0  0  0
 54120  1  0  0  0  0
 55121  1  0  0  0  0
 55122  1  0  0  0  0
 56123  1  0  0  0  0
 56124  1  0  0  0  0
 57 58  1  0  0  0  0
 57125  1  0  0  0  0
 57126  1  0  0  0  0
 58127  1  0  0  0  0
 58128  1  0  0  0  0
M  END
> <PUBCHEM_COMPOUND_CID>
162668120

> <PUBCHEM_COMPOUND_CANONICALIZED>
1

> <PUBCHEM_CACTVS_COMPLEXITY>
957

> <PUBCHEM_CACTVS_HBOND_ACCEPTOR>
10

> <PUBCHEM_CACTVS_HBOND_DONOR>
0

> <PUBCHEM_CACTVS_ROTATABLE_BOND>
31

> <PUBCHEM_CACTVS_SUBSKEYS>
AAADcfB/+AAAAAAAAAAAAAAAAAAAAePECAAwYAAAAAAAAGAB9AAAHgAIAAAADCjhngY+gJMIBACiAzRnRAACBAQxkgAY2AA4cIgLYCLAkRGXIAAggADayAcQgIAOgAAAAAAQAAAAAAAAACAAACAACAAAAA==

> <PUBCHEM_IUPAC_OPENEYE_NAME>
N-[4-[1-[2-[2-[2-[2-[2-[4-[4-[indan-2-yl(propyl)amino]butyl]triazol-1-yl]ethoxy]ethoxy]ethoxy]ethoxy]ethyl]triazol-4-yl]butyl]-N-propyl-indan-2-amine

> <PUBCHEM_IUPAC_CAS_NAME>
N-[4-[1-[2-[2-[2-[2-[2-[4-[4-[2,3-dihydro-1H-inden-2-yl(propyl)amino]butyl]-1-triazolyl]ethoxy]ethoxy]ethoxy]ethoxy]ethyl]-4-triazolyl]butyl]-N-propyl-2,3-dihydro-1H-inden-2-amine

> <PUBCHEM_IUPAC_NAME_MARKUP>
<I>N</I>-[4-[1-[2-[2-[2-[2-[2-[4-[4-[2,3-dihydro-1<I>H</I>-inden-2-yl(propyl)amino]butyl]triazol-1-yl]ethoxy]ethoxy]ethoxy]ethoxy]ethyl]triazol-4-yl]butyl]-<I>N</I>-propyl-2,3-dihydro-1<I>H</I>-inden-2-amine

> <PUBCHEM_IUPAC_NAME>
N-[4-[1-[2-[2-[2-[2-[2-[4-[4-[2,3-dihydro-1H-inden-2-yl(propyl)amino]butyl]triazol-1-yl]ethoxy]ethoxy]ethoxy]ethoxy]ethyl]triazol-4-yl]butyl]-N-propyl-2,3-dihydro-1H-inden-2-amine

> <PUBCHEM_IUPAC_SYSTEMATIC_NAME>
N-[4-[1-[2-[2-[2-[2-[2-[4-[4-[2,3-dihydro-1H-inden-2-yl(propyl)amino]butyl]-1,2,3-triazol-1-yl]ethoxy]ethoxy]ethoxy]ethoxy]ethyl]-1,2,3-triazol-4-yl]butyl]-N-propyl-2,3-dihydro-1H-inden-2-amine

> <PUBCHEM_IUPAC_TRADITIONAL_NAME>
indan-2-yl-[4-[1-[2-[2-[2-[2-[2-[4-[4-[indan-2-yl(propyl)amino]butyl]triazol-1-yl]ethoxy]ethoxy]ethoxy]ethoxy]ethyl]triazol-4-yl]butyl]-propyl-amine

> <PUBCHEM_IUPAC_INCHI>
InChI=1S/C46H70N8O4/c1-3-19-51(45-33-39-13-5-6-14-40(39)34-45)21-11-9-17-43-37-53(49-47-43)23-25-55-27-29-57-31-32-58-30-28-56-26-24-54-38-44(48-50-54)18-10-12-22-52(20-4-2)46-35-41-15-7-8-16-42(41)36-46/h5-8,13-16,37-38,45-46H,3-4,9-12,17-36H2,1-2H3

> <PUBCHEM_IUPAC_INCHIKEY>
SOJFIJKCXJMOJO-UHFFFAOYSA-N

> <PUBCHEM_XLOGP3_AA>
6.4

> <PUBCHEM_EXACT_MASS>
798.55200274

> <PUBCHEM_MOLECULAR_FORMULA>
C46H70N8O4

> <PUBCHEM_MOLECULAR_WEIGHT>
799.1

> <PUBCHEM_OPENEYE_CAN_SMILES>
CCCN(CCCCC1=CN(N=N1)CCOCCOCCOCCOCCN2C=C(N=N2)CCCCN(CCC)C3CC4=CC=CC=C4C3)C5CC6=CC=CC=C6C5

> <PUBCHEM_OPENEYE_ISO_SMILES>
CCCN(CCCCC1=CN(N=N1)CCOCCOCCOCCOCCN2C=C(N=N2)CCCCN(CCC)C3CC4=CC=CC=C4C3)C5CC6=CC=CC=C6C5

> <PUBCHEM_CACTVS_TPSA>
105

> <PUBCHEM_MONOISOTOPIC_WEIGHT>
798.55200274

> <PUBCHEM_TOTAL_CHARGE>
0

> <PUBCHEM_HEAVY_ATOM_COUNT>
58

> <PUBCHEM_ATOM_DEF_STEREO_COUNT>
0

> <PUBCHEM_ATOM_UDEF_STEREO_COUNT>
0

> <PUBCHEM_BOND_DEF_STEREO_COUNT>
0

> <PUBCHEM_BOND_UDEF_STEREO_COUNT>
0

> <PUBCHEM_ISOTOPIC_ATOM_COUNT>
0

> <PUBCHEM_COMPONENT_COUNT>
1

> <PUBCHEM_CACTVS_TAUTO_COUNT>
-1

> <PUBCHEM_COORDINATE_TYPE>
1
5
255

> <PUBCHEM_BONDANNOTATIONS>
10  12  8
10  48  8
19  20  8
19  29  8
20  30  8
21  22  8
21  31  8
22  32  8
29  37  8
30  38  8
31  39  8
32  40  8
37  38  8
39  40  8
45  47  8
46  48  8
7  11  8
7  45  8
8  12  8
8  46  8
9  11  8
9  47  8

$$$$
