162646372
  -OEChem-09292322422D

 65 68  0     1  0  0  0  0  0999 V2000
   15.3936    1.2740    0.0000 Cl  0  0  0  0  0  0  0  0  0  0  0  0
    5.0388   -2.3482    0.0000 O   0  0  0  0  0  0  0  0  0  0  0  0
   10.5388    0.2498    0.0000 N   0  0  3  0  0  0  0  0  0  0  0  0
    5.0388   -0.6162    0.0000 N   0  0  0  0  0  0  0  0  0  0  0  0
    2.9511   -0.6732    0.0000 N   0  0  0  0  0  0  0  0  0  0  0  0
    8.0388   -0.6162    0.0000 C   0  0  0  0  0  0  0  0  0  0  0  0
    7.5388   -1.4822    0.0000 C   0  0  0  0  0  0  0  0  0  0  0  0
    7.5388    0.2498    0.0000 C   0  0  0  0  0  0  0  0  0  0  0  0
    6.0388   -0.6162    0.0000 C   0  0  0  0  0  0  0  0  0  0  0  0
    6.5388   -1.4822    0.0000 C   0  0  0  0  0  0  0  0  0  0  0  0
    6.5388    0.2498    0.0000 C   0  0  0  0  0  0  0  0  0  0  0  0
    9.0388   -0.6162    0.0000 C   0  0  0  0  0  0  0  0  0  0  0  0
    9.5388    0.2498    0.0000 C   0  0  0  0  0  0  0  0  0  0  0  0
   10.9727    1.1508    0.0000 C   0  0  0  0  0  0  0  0  0  0  0  0
   10.9727   -0.6511    0.0000 C   0  0  0  0  0  0  0  0  0  0  0  0
   11.9477    1.3733    0.0000 C   0  0  1  0  0  0  0  0  0  0  0  0
    3.5388   -1.4822    0.0000 C   0  0  2  0  0  0  0  0  0  0  0  0
    4.5388   -1.4822    0.0000 C   0  0  0  0  0  0  0  0  0  0  0  0
   11.9477   -0.8737    0.0000 C   0  0  0  0  0  0  0  0  0  0  0  0
    2.9511   -2.2912    0.0000 C   0  0  0  0  0  0  0  0  0  0  0  0
   12.7295    0.7498    0.0000 C   0  0  0  0  0  0  0  0  0  0  0  0
   12.7295   -0.2502    0.0000 C   0  0  0  0  0  0  0  0  0  0  0  0
    2.0000   -1.9822    0.0000 C   0  0  0  0  0  0  0  0  0  0  0  0
    2.0000   -0.9822    0.0000 C   0  0  0  0  0  0  0  0  0  0  0  0
   12.1702    2.3482    0.0000 C   0  0  0  0  0  0  0  0  0  0  0  0
   13.6234    1.2845    0.0000 C   0  0  0  0  0  0  0  0  0  0  0  0
   13.6234   -0.7848    0.0000 C   0  0  0  0  0  0  0  0  0  0  0  0
   14.5295    0.7706    0.0000 C   0  0  0  0  0  0  0  0  0  0  0  0
   14.5295   -0.2710    0.0000 C   0  0  0  0  0  0  0  0  0  0  0  0
    8.3488   -0.0793    0.0000 H   0  0  0  0  0  0  0  0  0  0  0  0
    7.4312   -2.0928    0.0000 H   0  0  0  0  0  0  0  0  0  0  0  0
    8.1214   -1.6943    0.0000 H   0  0  0  0  0  0  0  0  0  0  0  0
    8.1214    0.4619    0.0000 H   0  0  0  0  0  0  0  0  0  0  0  0
    7.4312    0.8604    0.0000 H   0  0  0  0  0  0  0  0  0  0  0  0
    5.7288   -0.0793    0.0000 H   0  0  0  0  0  0  0  0  0  0  0  0
    5.9562   -1.6943    0.0000 H   0  0  0  0  0  0  0  0  0  0  0  0
    6.6465   -2.0928    0.0000 H   0  0  0  0  0  0  0  0  0  0  0  0
    6.6465    0.8604    0.0000 H   0  0  0  0  0  0  0  0  0  0  0  0
    5.9562    0.4619    0.0000 H   0  0  0  0  0  0  0  0  0  0  0  0
    8.9312   -1.2268    0.0000 H   0  0  0  0  0  0  0  0  0  0  0  0
    9.6214   -0.8282    0.0000 H   0  0  0  0  0  0  0  0  0  0  0  0
    9.6465    0.8604    0.0000 H   0  0  0  0  0  0  0  0  0  0  0  0
    8.9562    0.4619    0.0000 H   0  0  0  0  0  0  0  0  0  0  0  0
    4.7288   -0.0793    0.0000 H   0  0  0  0  0  0  0  0  0  0  0  0
   10.9727    1.7708    0.0000 H   0  0  0  0  0  0  0  0  0  0  0  0
   10.3683    1.2888    0.0000 H   0  0  0  0  0  0  0  0  0  0  0  0
   10.3683   -0.7891    0.0000 H   0  0  0  0  0  0  0  0  0  0  0  0
   10.9727   -1.2711    0.0000 H   0  0  0  0  0  0  0  0  0  0  0  0
   12.5329    1.5781    0.0000 H   0  0  0  0  0  0  0  0  0  0  0  0
    3.8203   -0.9298    0.0000 H   0  0  0  0  0  0  0  0  0  0  0  0
   11.6786   -1.4323    0.0000 H   0  0  0  0  0  0  0  0  0  0  0  0
   12.4324   -1.2602    0.0000 H   0  0  0  0  0  0  0  0  0  0  0  0
    2.6989   -2.8576    0.0000 H   0  0  0  0  0  0  0  0  0  0  0  0
    3.4880   -2.6012    0.0000 H   0  0  0  0  0  0  0  0  0  0  0  0
    1.3834   -1.9174    0.0000 H   0  0  0  0  0  0  0  0  0  0  0  0
    1.8711   -2.5887    0.0000 H   0  0  0  0  0  0  0  0  0  0  0  0
    3.1426   -0.0835    0.0000 H   0  0  0  0  0  0  0  0  0  0  0  0
    1.8711   -0.3758    0.0000 H   0  0  0  0  0  0  0  0  0  0  0  0
    1.3834   -1.0470    0.0000 H   0  0  0  0  0  0  0  0  0  0  0  0
   12.7746    2.2103    0.0000 H   0  0  0  0  0  0  0  0  0  0  0  0
   12.3081    2.9527    0.0000 H   0  0  0  0  0  0  0  0  0  0  0  0
   11.5657    2.4862    0.0000 H   0  0  0  0  0  0  0  0  0  0  0  0
   13.6163    1.9044    0.0000 H   0  0  0  0  0  0  0  0  0  0  0  0
   13.6163   -1.4048    0.0000 H   0  0  0  0  0  0  0  0  0  0  0  0
   15.0652   -0.5831    0.0000 H   0  0  0  0  0  0  0  0  0  0  0  0
  1 28  1  0  0  0  0
  2 18  2  0  0  0  0
  3 13  1  0  0  0  0
  3 14  1  0  0  0  0
  3 15  1  0  0  0  0
  4  9  1  0  0  0  0
  4 18  1  0  0  0  0
  4 44  1  0  0  0  0
  5 17  1  0  0  0  0
  5 24  1  0  0  0  0
  5 57  1  0  0  0  0
  6  7  1  0  0  0  0
  6  8  1  0  0  0  0
  6 12  1  0  0  0  0
  6 30  1  0  0  0  0
  7 10  1  0  0  0  0
  7 31  1  0  0  0  0
  7 32  1  0  0  0  0
  8 11  1  0  0  0  0
  8 33  1  0  0  0  0
  8 34  1  0  0  0  0
  9 10  1  0  0  0  0
  9 11  1  0  0  0  0
  9 35  1  0  0  0  0
 10 36  1  0  0  0  0
 10 37  1  0  0  0  0
 11 38  1  0  0  0  0
 11 39  1  0  0  0  0
 12 13  1  0  0  0  0
 12 40  1  0  0  0  0
 12 41  1  0  0  0  0
 13 42  1  0  0  0  0
 13 43  1  0  0  0  0
 14 16  1  0  0  0  0
 14 45  1  0  0  0  0
 14 46  1  0  0  0  0
 15 19  1  0  0  0  0
 15 47  1  0  0  0  0
 15 48  1  0  0  0  0
 16 21  1  0  0  0  0
 16 25  1  6  0  0  0
 16 49  1  0  0  0  0
 17 18  1  6  0  0  0
 17 20  1  0  0  0  0
 17 50  1  0  0  0  0
 19 22  1  0  0  0  0
 19 51  1  0  0  0  0
 19 52  1  0  0  0  0
 20 23  1  0  0  0  0
 20 53  1  0  0  0  0
 20 54  1  0  0  0  0
 21 22  2  0  0  0  0
 21 26  1  0  0  0  0
 22 27  1  0  0  0  0
 23 24  1  0  0  0  0
 23 55  1  0  0  0  0
 23 56  1  0  0  0  0
 24 58  1  0  0  0  0
 24 59  1  0  0  0  0
 25 60  1  0  0  0  0
 25 61  1  0  0  0  0
 25 62  1  0  0  0  0
 26 28  2  0  0  0  0
 26 63  1  0  0  0  0
 27 29  2  0  0  0  0
 27 64  1  0  0  0  0
 28 29  1  0  0  0  0
 29 65  1  0  0  0  0
M  END
> <PUBCHEM_COMPOUND_CID>
162646372

> <PUBCHEM_COMPOUND_CANONICALIZED>
1

> <PUBCHEM_CACTVS_COMPLEXITY>
536

> <PUBCHEM_CACTVS_HBOND_ACCEPTOR>
3

> <PUBCHEM_CACTVS_HBOND_DONOR>
2

> <PUBCHEM_CACTVS_ROTATABLE_BOND>
5

> <PUBCHEM_CACTVS_SUBSKEYS>
AAADcfB7IAAEAAAAAAAAAAAAAAAAAWAAAAAwYAAABYAAAAABAAAAHgIQAAAADSrBmCQyAIPAAACIAiFSEAACAAAgBQAIiIGIAogIYDKBkzGUIAAglgCIiAcYgcAOhAAAIAAQAAAYAABAACAAAAAAAAAAAA==

> <PUBCHEM_IUPAC_OPENEYE_NAME>
(2S)-N-[4-[2-[(5R)-7-chloro-5-methyl-1,2,4,5-tetrahydro-3-benzazepin-3-yl]ethyl]cyclohexyl]pyrrolidine-2-carboxamide

> <PUBCHEM_IUPAC_CAS_NAME>
(2S)-N-[4-[2-[(5R)-7-chloro-5-methyl-1,2,4,5-tetrahydro-3-benzazepin-3-yl]ethyl]cyclohexyl]-2-pyrrolidinecarboxamide

> <PUBCHEM_IUPAC_NAME_MARKUP>
(2<I>S</I>)-<I>N</I>-[4-[2-[(5<I>R</I>)-7-chloro-5-methyl-1,2,4,5-tetrahydro-3-benzazepin-3-yl]ethyl]cyclohexyl]pyrrolidine-2-carboxamide

> <PUBCHEM_IUPAC_NAME>
(2S)-N-[4-[2-[(5R)-7-chloro-5-methyl-1,2,4,5-tetrahydro-3-benzazepin-3-yl]ethyl]cyclohexyl]pyrrolidine-2-carboxamide

> <PUBCHEM_IUPAC_SYSTEMATIC_NAME>
(2S)-N-[4-[2-[(5R)-7-chloranyl-5-methyl-1,2,4,5-tetrahydro-3-benzazepin-3-yl]ethyl]cyclohexyl]pyrrolidine-2-carboxamide

> <PUBCHEM_IUPAC_TRADITIONAL_NAME>
(2S)-N-[4-[2-[(5R)-7-chloro-5-methyl-1,2,4,5-tetrahydro-3-benzazepin-3-yl]ethyl]cyclohexyl]pyrrolidine-2-carboxamide

> <PUBCHEM_IUPAC_INCHI>
InChI=1S/C24H36ClN3O/c1-17-16-28(14-11-19-6-7-20(25)15-22(17)19)13-10-18-4-8-21(9-5-18)27-24(29)23-3-2-12-26-23/h6-7,15,17-18,21,23,26H,2-5,8-14,16H2,1H3,(H,27,29)/t17-,18?,21?,23-/m0/s1

> <PUBCHEM_IUPAC_INCHIKEY>
XWSSRMXCAFXSRM-QLTWEHPCSA-N

> <PUBCHEM_XLOGP3_AA>
4.5

> <PUBCHEM_EXACT_MASS>
417.2546905

> <PUBCHEM_MOLECULAR_FORMULA>
C24H36ClN3O

> <PUBCHEM_MOLECULAR_WEIGHT>
418.0

> <PUBCHEM_OPENEYE_CAN_SMILES>
CC1CN(CCC2=C1C=C(C=C2)Cl)CCC3CCC(CC3)NC(=O)C4CCCN4

> <PUBCHEM_OPENEYE_ISO_SMILES>
C[C@H]1CN(CCC2=C1C=C(C=C2)Cl)CCC3CCC(CC3)NC(=O)[C@@H]4CCCN4

> <PUBCHEM_CACTVS_TPSA>
44.4

> <PUBCHEM_MONOISOTOPIC_WEIGHT>
417.2546905

> <PUBCHEM_TOTAL_CHARGE>
0

> <PUBCHEM_HEAVY_ATOM_COUNT>
29

> <PUBCHEM_ATOM_DEF_STEREO_COUNT>
2

> <PUBCHEM_ATOM_UDEF_STEREO_COUNT>
0

> <PUBCHEM_BOND_DEF_STEREO_COUNT>
0

> <PUBCHEM_BOND_UDEF_STEREO_COUNT>
0

> <PUBCHEM_ISOTOPIC_ATOM_COUNT>
0

> <PUBCHEM_COMPONENT_COUNT>
1

> <PUBCHEM_CACTVS_TAUTO_COUNT>
-1

> <PUBCHEM_COORDINATE_TYPE>
1
5
255

> <PUBCHEM_BONDANNOTATIONS>
16  25  6
17  18  6
21  22  8
21  26  8
22  27  8
26  28  8
27  29  8
28  29  8

$$$$
