13720691
  -OEChem-09292321582D

 46 47  0     1  0  0  0  0  0999 V2000
    3.6014    0.0000    0.0000 Br  0  0  0  0  0  0  0  0  0  0  0  0
    7.6647    5.2271    0.0000 O   0  0  0  0  0  0  0  0  0  0  0  0
    7.6647    3.1788    0.0000 O   0  0  0  0  0  0  0  0  0  0  0  0
    5.1089    9.2261    0.0000 O   0  0  0  0  0  0  0  0  0  0  0  0
    2.8100    4.2029    0.0000 N   0  0  3  0  0  0  0  0  0  0  0  0
    4.2188    5.3264    0.0000 C   0  0  3  0  0  0  0  0  0  0  0  0
    3.2439    5.1039    0.0000 C   0  0  0  0  0  0  0  0  0  0  0  0
    5.0006    4.7029    0.0000 C   0  0  0  0  0  0  0  0  0  0  0  0
    3.2439    3.3019    0.0000 C   0  0  0  0  0  0  0  0  0  0  0  0
    4.2188    3.0794    0.0000 C   0  0  0  0  0  0  0  0  0  0  0  0
    5.0006    3.7029    0.0000 C   0  0  0  0  0  0  0  0  0  0  0  0
    4.4413    6.3013    0.0000 C   0  0  0  0  0  0  0  0  0  0  0  0
    1.8100    4.2029    0.0000 C   0  0  0  0  0  0  0  0  0  0  0  0
    5.8946    5.2376    0.0000 C   0  0  0  0  0  0  0  0  0  0  0  0
    5.8946    3.1682    0.0000 C   0  0  0  0  0  0  0  0  0  0  0  0
    6.8006    4.7237    0.0000 C   0  0  0  0  0  0  0  0  0  0  0  0
    3.7083    6.9815    0.0000 C   0  0  0  0  0  0  0  0  0  0  0  0
    5.3969    6.5961    0.0000 C   0  0  0  0  0  0  0  0  0  0  0  0
    6.8006    3.6821    0.0000 C   0  0  0  0  0  0  0  0  0  0  0  0
    1.3100    3.3369    0.0000 C   0  0  0  0  0  0  0  0  0  0  0  0
    3.9308    7.9564    0.0000 C   0  0  0  0  0  0  0  0  0  0  0  0
    5.6194    7.5710    0.0000 C   0  0  0  0  0  0  0  0  0  0  0  0
    4.8864    8.2512    0.0000 C   0  0  0  0  0  0  0  0  0  0  0  0
    0.3100    3.3369    0.0000 C   0  0  0  0  0  0  0  0  0  0  0  0
    3.7804    5.7648    0.0000 H   0  0  0  0  0  0  0  0  0  0  0  0
    3.2439    5.7239    0.0000 H   0  0  0  0  0  0  0  0  0  0  0  0
    2.6394    5.2418    0.0000 H   0  0  0  0  0  0  0  0  0  0  0  0
    2.6394    3.1640    0.0000 H   0  0  0  0  0  0  0  0  0  0  0  0
    3.2439    2.6819    0.0000 H   0  0  0  0  0  0  0  0  0  0  0  0
    3.9498    2.5208    0.0000 H   0  0  0  0  0  0  0  0  0  0  0  0
    4.7036    2.6928    0.0000 H   0  0  0  0  0  0  0  0  0  0  0  0
    1.9177    4.8135    0.0000 H   0  0  0  0  0  0  0  0  0  0  0  0
    1.2274    4.4150    0.0000 H   0  0  0  0  0  0  0  0  0  0  0  0
    5.8874    5.8575    0.0000 H   0  0  0  0  0  0  0  0  0  0  0  0
    5.8874    2.5483    0.0000 H   0  0  0  0  0  0  0  0  0  0  0  0
    3.1158    6.7988    0.0000 H   0  0  0  0  0  0  0  0  0  0  0  0
    5.8514    6.1744    0.0000 H   0  0  0  0  0  0  0  0  0  0  0  0
    1.6200    2.7999    0.0000 H   0  0  0  0  0  0  0  0  0  0  0  0
    3.4763    8.3781    0.0000 H   0  0  0  0  0  0  0  0  0  0  0  0
    6.2119    7.7538    0.0000 H   0  0  0  0  0  0  0  0  0  0  0  0
    8.2029    4.9191    0.0000 H   0  0  0  0  0  0  0  0  0  0  0  0
    7.6624    2.5588    0.0000 H   0  0  0  0  0  0  0  0  0  0  0  0
    0.0000    3.8738    0.0000 H   0  0  0  0  0  0  0  0  0  0  0  0
    0.0000    2.7999    0.0000 H   0  0  0  0  0  0  0  0  0  0  0  0
    4.6544    9.6478    0.0000 H   0  0  0  0  0  0  0  0  0  0  0  0
    4.6014    0.0000    0.0000 H   0  0  0  0  0  0  0  0  0  0  0  0
  1 46  1  0  0  0  0
  2 16  1  0  0  0  0
  2 41  1  0  0  0  0
  3 19  1  0  0  0  0
  3 42  1  0  0  0  0
  4 23  1  0  0  0  0
  4 45  1  0  0  0  0
  5  7  1  0  0  0  0
  5  9  1  0  0  0  0
  5 13  1  0  0  0  0
  6  7  1  0  0  0  0
  6  8  1  0  0  0  0
  6 12  1  0  0  0  0
  6 25  1  0  0  0  0
  7 26  1  0  0  0  0
  7 27  1  0  0  0  0
  8 11  1  0  0  0  0
  8 14  2  0  0  0  0
  9 10  1  0  0  0  0
  9 28  1  0  0  0  0
  9 29  1  0  0  0  0
 10 11  1  0  0  0  0
 10 30  1  0  0  0  0
 10 31  1  0  0  0  0
 11 15  2  0  0  0  0
 12 17  2  0  0  0  0
 12 18  1  0  0  0  0
 13 20  1  0  0  0  0
 13 32  1  0  0  0  0
 13 33  1  0  0  0  0
 14 16  1  0  0  0  0
 14 34  1  0  0  0  0
 15 19  1  0  0  0  0
 15 35  1  0  0  0  0
 16 19  2  0  0  0  0
 17 21  1  0  0  0  0
 17 36  1  0  0  0  0
 18 22  2  0  0  0  0
 18 37  1  0  0  0  0
 20 24  2  0  0  0  0
 20 38  1  0  0  0  0
 21 23  2  0  0  0  0
 21 39  1  0  0  0  0
 22 23  1  0  0  0  0
 22 40  1  0  0  0  0
 24 43  1  0  0  0  0
 24 44  1  0  0  0  0
M  END
> <PUBCHEM_COMPOUND_CID>
13720691

> <PUBCHEM_COMPOUND_CANONICALIZED>
1

> <PUBCHEM_CACTVS_COMPLEXITY>
394

> <PUBCHEM_CACTVS_HBOND_ACCEPTOR>
4

> <PUBCHEM_CACTVS_HBOND_DONOR>
4

> <PUBCHEM_CACTVS_ROTATABLE_BOND>
3

> <PUBCHEM_CACTVS_SUBSKEYS>
AAADceB6MAAAEAAAAAAAAAAAAAAAAAAAAAAwYAAABYAAAAABQAAAHgAACAAADQTBmAQwBoMAAgCAAiBCAACCAAAgIAAIiAAOiIgJJiKCkROEcAEkwBGJmAeQ0PIOoAABAAAQQABAAAIAACCAAAAAAAAAAA==

> <PUBCHEM_IUPAC_OPENEYE_NAME>
3-allyl-5-(4-hydroxyphenyl)-1,2,4,5-tetrahydro-3-benzazepine-7,8-diol;hydrobromide

> <PUBCHEM_IUPAC_CAS_NAME>
5-(4-hydroxyphenyl)-3-prop-2-enyl-1,2,4,5-tetrahydro-3-benzazepine-7,8-diol;hydrobromide

> <PUBCHEM_IUPAC_NAME_MARKUP>
5-(4-hydroxyphenyl)-3-prop-2-enyl-1,2,4,5-tetrahydro-3-benzazepine-7,8-diol;hydrobromide

> <PUBCHEM_IUPAC_NAME>
5-(4-hydroxyphenyl)-3-prop-2-enyl-1,2,4,5-tetrahydro-3-benzazepine-7,8-diol;hydrobromide

> <PUBCHEM_IUPAC_SYSTEMATIC_NAME>
5-(4-hydroxyphenyl)-3-prop-2-enyl-1,2,4,5-tetrahydro-3-benzazepine-7,8-diol;hydrobromide

> <PUBCHEM_IUPAC_TRADITIONAL_NAME>
3-allyl-5-(4-hydroxyphenyl)-1,2,4,5-tetrahydro-3-benzazepine-7,8-diol;hydrobromide

> <PUBCHEM_IUPAC_INCHI>
InChI=1S/C19H21NO3.BrH/c1-2-8-20-9-7-14-10-18(22)19(23)11-16(14)17(12-20)13-3-5-15(21)6-4-13;/h2-6,10-11,17,21-23H,1,7-9,12H2;1H

> <PUBCHEM_IUPAC_INCHIKEY>
UMDIZYDHRFEWTQ-UHFFFAOYSA-N

> <PUBCHEM_EXACT_MASS>
391.07831

> <PUBCHEM_MOLECULAR_FORMULA>
C19H22BrNO3

> <PUBCHEM_MOLECULAR_WEIGHT>
392.3

> <PUBCHEM_OPENEYE_CAN_SMILES>
C=CCN1CCC2=CC(=C(C=C2C(C1)C3=CC=C(C=C3)O)O)O.Br

> <PUBCHEM_OPENEYE_ISO_SMILES>
C=CCN1CCC2=CC(=C(C=C2C(C1)C3=CC=C(C=C3)O)O)O.Br

> <PUBCHEM_CACTVS_TPSA>
63.9

> <PUBCHEM_MONOISOTOPIC_WEIGHT>
391.07831

> <PUBCHEM_TOTAL_CHARGE>
0

> <PUBCHEM_HEAVY_ATOM_COUNT>
24

> <PUBCHEM_ATOM_DEF_STEREO_COUNT>
0

> <PUBCHEM_ATOM_UDEF_STEREO_COUNT>
1

> <PUBCHEM_BOND_DEF_STEREO_COUNT>
0

> <PUBCHEM_BOND_UDEF_STEREO_COUNT>
0

> <PUBCHEM_ISOTOPIC_ATOM_COUNT>
0

> <PUBCHEM_COMPONENT_COUNT>
2

> <PUBCHEM_CACTVS_TAUTO_COUNT>
-1

> <PUBCHEM_COORDINATE_TYPE>
1
5
255

> <PUBCHEM_BONDANNOTATIONS>
11  15  8
12  17  8
12  18  8
14  16  8
15  19  8
16  19  8
17  21  8
18  22  8
21  23  8
22  23  8
6  12  3
8  11  8
8  14  8

$$$$
