23630503
  -OEChem-09292322492D

 55 58  0     1  0  0  0  0  0999 V2000
    5.3479   -1.5589    0.0000 S   0  0  0  0  0  0  0  0  0  0  0  0
   14.7840    1.5398    0.0000 O   0  0  0  0  0  0  0  0  0  0  0  0
    8.3479    0.1731    0.0000 N   0  0  3  0  0  0  0  0  0  0  0  0
   14.1177    0.7941    0.0000 N   0  0  0  0  0  0  0  0  0  0  0  0
    3.7601   -2.3679    0.0000 N   0  0  0  0  0  0  0  0  0  0  0  0
    3.7601   -0.7499    0.0000 N   0  0  0  0  0  0  0  0  0  0  0  0
    2.8090   -1.0589    0.0000 N   0  0  0  0  0  0  0  0  0  0  0  0
    8.7817    1.0741    0.0000 C   0  0  0  0  0  0  0  0  0  0  0  0
    8.7817   -0.7278    0.0000 C   0  0  0  0  0  0  0  0  0  0  0  0
    9.7567    1.2966    0.0000 C   0  0  0  0  0  0  0  0  0  0  0  0
    9.7567   -0.9504    0.0000 C   0  0  0  0  0  0  0  0  0  0  0  0
   10.5385    0.6731    0.0000 C   0  0  0  0  0  0  0  0  0  0  0  0
   10.5385   -0.3269    0.0000 C   0  0  0  0  0  0  0  0  0  0  0  0
    7.3479    0.1731    0.0000 C   0  0  0  0  0  0  0  0  0  0  0  0
    6.8479   -0.6929    0.0000 C   0  0  0  0  0  0  0  0  0  0  0  0
   11.4324    1.2078    0.0000 C   0  0  0  0  0  0  0  0  0  0  0  0
   11.4324   -0.8615    0.0000 C   0  0  0  0  0  0  0  0  0  0  0  0
   12.3385    0.6940    0.0000 C   0  0  0  0  0  0  0  0  0  0  0  0
    5.8479   -0.6929    0.0000 C   0  0  0  0  0  0  0  0  0  0  0  0
   12.3385   -0.3477    0.0000 C   0  0  0  0  0  0  0  0  0  0  0  0
   13.2026    1.1973    0.0000 C   0  0  0  0  0  0  0  0  0  0  0  0
   13.3033    2.1922    0.0000 C   0  0  0  0  0  0  0  0  0  0  0  0
    4.3479   -1.5589    0.0000 C   0  0  0  0  0  0  0  0  0  0  0  0
   14.2806    2.4039    0.0000 C   0  0  0  0  0  0  0  0  0  0  0  0
    2.8090   -2.0589    0.0000 C   0  0  0  0  0  0  0  0  0  0  0  0
    4.0691   -3.3190    0.0000 C   0  0  0  0  0  0  0  0  0  0  0  0
   14.6838    3.3190    0.0000 C   0  0  0  0  0  0  0  0  0  0  0  0
    2.0000   -2.6467    0.0000 C   0  0  0  0  0  0  0  0  0  0  0  0
    8.7817    1.6941    0.0000 H   0  0  0  0  0  0  0  0  0  0  0  0
    8.1773    1.2121    0.0000 H   0  0  0  0  0  0  0  0  0  0  0  0
    8.1773   -0.8658    0.0000 H   0  0  0  0  0  0  0  0  0  0  0  0
    8.7817   -1.3478    0.0000 H   0  0  0  0  0  0  0  0  0  0  0  0
   10.2414    1.6832    0.0000 H   0  0  0  0  0  0  0  0  0  0  0  0
    9.4877    1.8552    0.0000 H   0  0  0  0  0  0  0  0  0  0  0  0
    9.4877   -1.5090    0.0000 H   0  0  0  0  0  0  0  0  0  0  0  0
   10.2414   -1.3369    0.0000 H   0  0  0  0  0  0  0  0  0  0  0  0
    7.4555    0.7837    0.0000 H   0  0  0  0  0  0  0  0  0  0  0  0
    6.7652    0.3852    0.0000 H   0  0  0  0  0  0  0  0  0  0  0  0
    6.7402   -1.3035    0.0000 H   0  0  0  0  0  0  0  0  0  0  0  0
    7.4305   -0.9049    0.0000 H   0  0  0  0  0  0  0  0  0  0  0  0
   11.4253    1.8278    0.0000 H   0  0  0  0  0  0  0  0  0  0  0  0
   11.4253   -1.4815    0.0000 H   0  0  0  0  0  0  0  0  0  0  0  0
    5.9555   -0.0823    0.0000 H   0  0  0  0  0  0  0  0  0  0  0  0
    5.2652   -0.4808    0.0000 H   0  0  0  0  0  0  0  0  0  0  0  0
   12.8742   -0.6597    0.0000 H   0  0  0  0  0  0  0  0  0  0  0  0
   12.8410    2.6053    0.0000 H   0  0  0  0  0  0  0  0  0  0  0  0
    3.4794   -3.5106    0.0000 H   0  0  0  0  0  0  0  0  0  0  0  0
    4.2607   -3.9086    0.0000 H   0  0  0  0  0  0  0  0  0  0  0  0
    4.6588   -3.1274    0.0000 H   0  0  0  0  0  0  0  0  0  0  0  0
   15.2512    3.0690    0.0000 H   0  0  0  0  0  0  0  0  0  0  0  0
   14.9338    3.8864    0.0000 H   0  0  0  0  0  0  0  0  0  0  0  0
   14.1165    3.5690    0.0000 H   0  0  0  0  0  0  0  0  0  0  0  0
    1.6356   -2.1451    0.0000 H   0  0  0  0  0  0  0  0  0  0  0  0
    1.4984   -3.0111    0.0000 H   0  0  0  0  0  0  0  0  0  0  0  0
    2.3644   -3.1483    0.0000 H   0  0  0  0  0  0  0  0  0  0  0  0
  1 19  1  0  0  0  0
  1 23  1  0  0  0  0
  2  4  1  0  0  0  0
  2 24  1  0  0  0  0
  3  8  1  0  0  0  0
  3  9  1  0  0  0  0
  3 14  1  0  0  0  0
  4 21  2  0  0  0  0
  5 23  1  0  0  0  0
  5 25  1  0  0  0  0
  5 26  1  0  0  0  0
  6  7  1  0  0  0  0
  6 23  2  0  0  0  0
  7 25  2  0  0  0  0
  8 10  1  0  0  0  0
  8 29  1  0  0  0  0
  8 30  1  0  0  0  0
  9 11  1  0  0  0  0
  9 31  1  0  0  0  0
  9 32  1  0  0  0  0
 10 12  1  0  0  0  0
 10 33  1  0  0  0  0
 10 34  1  0  0  0  0
 11 13  1  0  0  0  0
 11 35  1  0  0  0  0
 11 36  1  0  0  0  0
 12 13  2  0  0  0  0
 12 16  1  0  0  0  0
 13 17  1  0  0  0  0
 14 15  1  0  0  0  0
 14 37  1  0  0  0  0
 14 38  1  0  0  0  0
 15 19  1  0  0  0  0
 15 39  1  0  0  0  0
 15 40  1  0  0  0  0
 16 18  2  0  0  0  0
 16 41  1  0  0  0  0
 17 20  2  0  0  0  0
 17 42  1  0  0  0  0
 18 20  1  0  0  0  0
 18 21  1  0  0  0  0
 19 43  1  0  0  0  0
 19 44  1  0  0  0  0
 20 45  1  0  0  0  0
 21 22  1  0  0  0  0
 22 24  2  0  0  0  0
 22 46  1  0  0  0  0
 24 27  1  0  0  0  0
 25 28  1  0  0  0  0
 26 47  1  0  0  0  0
 26 48  1  0  0  0  0
 26 49  1  0  0  0  0
 27 50  1  0  0  0  0
 27 51  1  0  0  0  0
 27 52  1  0  0  0  0
 28 53  1  0  0  0  0
 28 54  1  0  0  0  0
 28 55  1  0  0  0  0
M  END
> <PUBCHEM_COMPOUND_CID>
23630503

> <PUBCHEM_COMPOUND_CANONICALIZED>
1

> <PUBCHEM_CACTVS_COMPLEXITY>
497

> <PUBCHEM_CACTVS_HBOND_ACCEPTOR>
6

> <PUBCHEM_CACTVS_HBOND_DONOR>
0

> <PUBCHEM_CACTVS_ROTATABLE_BOND>
6

> <PUBCHEM_CACTVS_SUBSKEYS>
AAADceB7oABAAAAAAAAAAAAAAAAAAWLAAAAwAAAABYAAAAAB8AAAHgQMAAAADAzF3wSzlJccEAirA6ZyZgCS0AtkIrA92CE+bNqILrqgmZOEMYBmiBqIyUeYyOCOwAACAAAQAACAAAQAACAAAAAAAAAAAA==

> <PUBCHEM_IUPAC_OPENEYE_NAME>
3-[3-[3-[(4,5-dimethyl-1,2,4-triazol-3-yl)sulfanyl]propyl]-1,2,4,5-tetrahydro-3-benzazepin-7-yl]-5-methyl-isoxazole

> <PUBCHEM_IUPAC_CAS_NAME>
3-[3-[3-[(4,5-dimethyl-1,2,4-triazol-3-yl)thio]propyl]-1,2,4,5-tetrahydro-3-benzazepin-7-yl]-5-methylisoxazole

> <PUBCHEM_IUPAC_NAME_MARKUP>
3-[3-[3-[(4,5-dimethyl-1,2,4-triazol-3-yl)sulfanyl]propyl]-1,2,4,5-tetrahydro-3-benzazepin-7-yl]-5-methyl-1,2-oxazole

> <PUBCHEM_IUPAC_NAME>
3-[3-[3-[(4,5-dimethyl-1,2,4-triazol-3-yl)sulfanyl]propyl]-1,2,4,5-tetrahydro-3-benzazepin-7-yl]-5-methyl-1,2-oxazole

> <PUBCHEM_IUPAC_SYSTEMATIC_NAME>
3-[3-[3-[(4,5-dimethyl-1,2,4-triazol-3-yl)sulfanyl]propyl]-1,2,4,5-tetrahydro-3-benzazepin-7-yl]-5-methyl-1,2-oxazole

> <PUBCHEM_IUPAC_TRADITIONAL_NAME>
3-[3-[3-[(4,5-dimethyl-1,2,4-triazol-3-yl)thio]propyl]-1,2,4,5-tetrahydro-3-benzazepin-7-yl]-5-methyl-isoxazole

> <PUBCHEM_IUPAC_INCHI>
InChI=1S/C21H27N5OS/c1-15-13-20(24-27-15)19-6-5-17-7-10-26(11-8-18(17)14-19)9-4-12-28-21-23-22-16(2)25(21)3/h5-6,13-14H,4,7-12H2,1-3H3

> <PUBCHEM_IUPAC_INCHIKEY>
YVOIVVWXMHBXQF-UHFFFAOYSA-N

> <PUBCHEM_XLOGP3_AA>
3.6

> <PUBCHEM_EXACT_MASS>
397.19363168

> <PUBCHEM_MOLECULAR_FORMULA>
C21H27N5OS

> <PUBCHEM_MOLECULAR_WEIGHT>
397.5

> <PUBCHEM_OPENEYE_CAN_SMILES>
CC1=CC(=NO1)C2=CC3=C(CCN(CC3)CCCSC4=NN=C(N4C)C)C=C2

> <PUBCHEM_OPENEYE_ISO_SMILES>
CC1=CC(=NO1)C2=CC3=C(CCN(CC3)CCCSC4=NN=C(N4C)C)C=C2

> <PUBCHEM_CACTVS_TPSA>
85.3

> <PUBCHEM_MONOISOTOPIC_WEIGHT>
397.19363168

> <PUBCHEM_TOTAL_CHARGE>
0

> <PUBCHEM_HEAVY_ATOM_COUNT>
28

> <PUBCHEM_ATOM_DEF_STEREO_COUNT>
0

> <PUBCHEM_ATOM_UDEF_STEREO_COUNT>
0

> <PUBCHEM_BOND_DEF_STEREO_COUNT>
0

> <PUBCHEM_BOND_UDEF_STEREO_COUNT>
0

> <PUBCHEM_ISOTOPIC_ATOM_COUNT>
0

> <PUBCHEM_COMPONENT_COUNT>
1

> <PUBCHEM_CACTVS_TAUTO_COUNT>
-1

> <PUBCHEM_COORDINATE_TYPE>
1
5
255

> <PUBCHEM_BONDANNOTATIONS>
12  13  8
12  16  8
13  17  8
16  18  8
17  20  8
18  20  8
2  24  8
2  4  8
21  22  8
22  24  8
4  21  8
5  23  8
5  25  8
6  23  8
6  7  8
7  25  8

$$$$
