44317000
  -OEChem-09292322212D

 76 81  0     0  0  0  0  0  0999 V2000
    7.1371    5.1801    0.0000 Cl  0  0  0  0  0  0  0  0  0  0  0  0
    7.1371    7.1801    0.0000 Cl  0  0  0  0  0  0  0  0  0  0  0  0
    2.8070   -3.3199    0.0000 O   0  0  0  0  0  0  0  0  0  0  0  0
    4.5390   -3.3199    0.0000 N   0  0  0  0  0  0  0  0  0  0  0  0
    5.4050    2.1801    0.0000 N   0  0  0  0  0  0  0  0  0  0  0  0
    5.4050    4.1801    0.0000 N   0  0  0  0  0  0  0  0  0  0  0  0
    3.6730   -4.8199    0.0000 C   0  0  0  0  0  0  0  0  0  0  0  0
    4.5092   -6.2682    0.0000 C   0  0  0  0  0  0  0  0  0  0  0  0
    2.9819   -6.7033    0.0000 C   0  0  0  0  0  0  0  0  0  0  0  0
    2.8368   -6.2682    0.0000 C   0  0  0  0  0  0  0  0  0  0  0  0
    4.5092   -5.3027    0.0000 C   0  0  0  0  0  0  0  0  0  0  0  0
    2.9819   -5.6580    0.0000 C   0  0  0  0  0  0  0  0  0  0  0  0
    2.8368   -5.3027    0.0000 C   0  0  0  0  0  0  0  0  0  0  0  0
    3.8876   -7.1801    0.0000 C   0  0  0  0  0  0  0  0  0  0  0  0
    3.6730   -6.5710    0.0000 C   0  0  0  0  0  0  0  0  0  0  0  0
    2.0000   -6.7510    0.0000 C   0  0  0  0  0  0  0  0  0  0  0  0
    3.6730   -3.8199    0.0000 C   0  0  0  0  0  0  0  0  0  0  0  0
    4.5390   -2.3199    0.0000 C   0  0  0  0  0  0  0  0  0  0  0  0
    5.4050   -1.8199    0.0000 C   0  0  0  0  0  0  0  0  0  0  0  0
    3.6730   -1.8199    0.0000 C   0  0  0  0  0  0  0  0  0  0  0  0
    4.5390   -0.3199    0.0000 C   0  0  0  0  0  0  0  0  0  0  0  0
    5.4050   -0.8199    0.0000 C   0  0  0  0  0  0  0  0  0  0  0  0
    3.6730   -0.8199    0.0000 C   0  0  0  0  0  0  0  0  0  0  0  0
    4.5390    0.6801    0.0000 C   0  0  0  0  0  0  0  0  0  0  0  0
    5.4050    1.1801    0.0000 C   0  0  0  0  0  0  0  0  0  0  0  0
    6.2710    2.6801    0.0000 C   0  0  0  0  0  0  0  0  0  0  0  0
    4.5390    2.6801    0.0000 C   0  0  0  0  0  0  0  0  0  0  0  0
    6.2710    3.6801    0.0000 C   0  0  0  0  0  0  0  0  0  0  0  0
    4.5390    3.6801    0.0000 C   0  0  0  0  0  0  0  0  0  0  0  0
    5.4050    5.1801    0.0000 C   0  0  0  0  0  0  0  0  0  0  0  0
    6.2710    5.6801    0.0000 C   0  0  0  0  0  0  0  0  0  0  0  0
    4.5390    5.6801    0.0000 C   0  0  0  0  0  0  0  0  0  0  0  0
    6.2710    6.6801    0.0000 C   0  0  0  0  0  0  0  0  0  0  0  0
    4.5390    6.6801    0.0000 C   0  0  0  0  0  0  0  0  0  0  0  0
    5.4050    7.1801    0.0000 C   0  0  0  0  0  0  0  0  0  0  0  0
    5.1016   -6.4509    0.0000 H   0  0  0  0  0  0  0  0  0  0  0  0
    2.8478   -7.3086    0.0000 H   0  0  0  0  0  0  0  0  0  0  0  0
    3.3444   -5.9122    0.0000 H   0  0  0  0  0  0  0  0  0  0  0  0
    5.1198   -5.4103    0.0000 H   0  0  0  0  0  0  0  0  0  0  0  0
    4.7212   -4.7201    0.0000 H   0  0  0  0  0  0  0  0  0  0  0  0
    2.6383   -5.1420    0.0000 H   0  0  0  0  0  0  0  0  0  0  0  0
    2.3885   -5.8375    0.0000 H   0  0  0  0  0  0  0  0  0  0  0  0
    2.6247   -4.7201    0.0000 H   0  0  0  0  0  0  0  0  0  0  0  0
    2.2262   -5.4103    0.0000 H   0  0  0  0  0  0  0  0  0  0  0  0
    3.5782   -7.7174    0.0000 H   0  0  0  0  0  0  0  0  0  0  0  0
    4.4127   -7.5097    0.0000 H   0  0  0  0  0  0  0  0  0  0  0  0
    4.0430   -7.0685    0.0000 H   0  0  0  0  0  0  0  0  0  0  0  0
    3.3030   -7.0685    0.0000 H   0  0  0  0  0  0  0  0  0  0  0  0
    1.5188   -6.3601    0.0000 H   0  0  0  0  0  0  0  0  0  0  0  0
    1.8068   -7.3401    0.0000 H   0  0  0  0  0  0  0  0  0  0  0  0
    5.0760   -3.6299    0.0000 H   0  0  0  0  0  0  0  0  0  0  0  0
    4.0021   -2.6299    0.0000 H   0  0  0  0  0  0  0  0  0  0  0  0
    5.6171   -2.4025    0.0000 H   0  0  0  0  0  0  0  0  0  0  0  0
    6.0156   -1.7122    0.0000 H   0  0  0  0  0  0  0  0  0  0  0  0
    3.0624   -1.7122    0.0000 H   0  0  0  0  0  0  0  0  0  0  0  0
    3.4609   -2.4025    0.0000 H   0  0  0  0  0  0  0  0  0  0  0  0
    5.0759   -0.0099    0.0000 H   0  0  0  0  0  0  0  0  0  0  0  0
    6.0156   -0.9276    0.0000 H   0  0  0  0  0  0  0  0  0  0  0  0
    5.6171   -0.2373    0.0000 H   0  0  0  0  0  0  0  0  0  0  0  0
    3.4609   -0.2373    0.0000 H   0  0  0  0  0  0  0  0  0  0  0  0
    3.0624   -0.9276    0.0000 H   0  0  0  0  0  0  0  0  0  0  0  0
    4.3270    1.2627    0.0000 H   0  0  0  0  0  0  0  0  0  0  0  0
    3.9284    0.5724    0.0000 H   0  0  0  0  0  0  0  0  0  0  0  0
    5.6171    0.5975    0.0000 H   0  0  0  0  0  0  0  0  0  0  0  0
    6.0156    1.2878    0.0000 H   0  0  0  0  0  0  0  0  0  0  0  0
    6.4831    2.0975    0.0000 H   0  0  0  0  0  0  0  0  0  0  0  0
    6.8816    2.7878    0.0000 H   0  0  0  0  0  0  0  0  0  0  0  0
    3.9284    2.7878    0.0000 H   0  0  0  0  0  0  0  0  0  0  0  0
    4.3270    2.0975    0.0000 H   0  0  0  0  0  0  0  0  0  0  0  0
    6.8816    3.5724    0.0000 H   0  0  0  0  0  0  0  0  0  0  0  0
    6.4831    4.2627    0.0000 H   0  0  0  0  0  0  0  0  0  0  0  0
    4.3269    4.2627    0.0000 H   0  0  0  0  0  0  0  0  0  0  0  0
    3.9284    3.5724    0.0000 H   0  0  0  0  0  0  0  0  0  0  0  0
    4.0020    5.3701    0.0000 H   0  0  0  0  0  0  0  0  0  0  0  0
    4.0020    6.9901    0.0000 H   0  0  0  0  0  0  0  0  0  0  0  0
    5.4050    7.8001    0.0000 H   0  0  0  0  0  0  0  0  0  0  0  0
  1 31  1  0  0  0  0
  2 33  1  0  0  0  0
  3 17  2  0  0  0  0
  4 17  1  0  0  0  0
  4 18  1  0  0  0  0
  4 51  1  0  0  0  0
  5 25  1  0  0  0  0
  5 26  1  0  0  0  0
  5 27  1  0  0  0  0
  6 28  1  0  0  0  0
  6 29  1  0  0  0  0
  6 30  1  0  0  0  0
  7 11  1  0  0  0  0
  7 12  1  0  0  0  0
  7 13  1  0  0  0  0
  7 17  1  0  0  0  0
  8 11  1  0  0  0  0
  8 14  1  0  0  0  0
  8 15  1  0  0  0  0
  8 36  1  0  0  0  0
  9 12  1  0  0  0  0
  9 14  1  0  0  0  0
  9 16  1  0  0  0  0
  9 37  1  0  0  0  0
 10 13  1  0  0  0  0
 10 15  1  0  0  0  0
 10 16  1  0  0  0  0
 10 38  1  0  0  0  0
 11 39  1  0  0  0  0
 11 40  1  0  0  0  0
 12 41  1  0  0  0  0
 12 42  1  0  0  0  0
 13 43  1  0  0  0  0
 13 44  1  0  0  0  0
 14 45  1  0  0  0  0
 14 46  1  0  0  0  0
 15 47  1  0  0  0  0
 15 48  1  0  0  0  0
 16 49  1  0  0  0  0
 16 50  1  0  0  0  0
 18 19  1  0  0  0  0
 18 20  1  0  0  0  0
 18 52  1  0  0  0  0
 19 22  1  0  0  0  0
 19 53  1  0  0  0  0
 19 54  1  0  0  0  0
 20 23  1  0  0  0  0
 20 55  1  0  0  0  0
 20 56  1  0  0  0  0
 21 22  1  0  0  0  0
 21 23  1  0  0  0  0
 21 24  1  0  0  0  0
 21 57  1  0  0  0  0
 22 58  1  0  0  0  0
 22 59  1  0  0  0  0
 23 60  1  0  0  0  0
 23 61  1  0  0  0  0
 24 25  1  0  0  0  0
 24 62  1  0  0  0  0
 24 63  1  0  0  0  0
 25 64  1  0  0  0  0
 25 65  1  0  0  0  0
 26 28  1  0  0  0  0
 26 66  1  0  0  0  0
 26 67  1  0  0  0  0
 27 29  1  0  0  0  0
 27 68  1  0  0  0  0
 27 69  1  0  0  0  0
 28 70  1  0  0  0  0
 28 71  1  0  0  0  0
 29 72  1  0  0  0  0
 29 73  1  0  0  0  0
 30 31  2  0  0  0  0
 30 32  1  0  0  0  0
 31 33  1  0  0  0  0
 32 34  2  0  0  0  0
 32 74  1  0  0  0  0
 33 35  2  0  0  0  0
 34 35  1  0  0  0  0
 34 75  1  0  0  0  0
 35 76  1  0  0  0  0
M  END
> <PUBCHEM_COMPOUND_CID>
44317000

> <PUBCHEM_COMPOUND_CANONICALIZED>
1

> <PUBCHEM_CACTVS_COMPLEXITY>
705

> <PUBCHEM_CACTVS_HBOND_ACCEPTOR>
3

> <PUBCHEM_CACTVS_HBOND_DONOR>
1

> <PUBCHEM_CACTVS_ROTATABLE_BOND>
6

> <PUBCHEM_CACTVS_SUBSKEYS>
AAADcfB7IAAGAAAAAAAAAAAAAAAAAAAAAAA8YMGDAAAAAAABAAAAHgIQAAAADyrBkCQwwIPAAACIACVSUACCAAAhBwAIisEIZogIYDLBk5HUIAhglgDIyAcYiMCPAAAAAAIAABQQAAQABAAAKAAAAAAAAA==

> <PUBCHEM_IUPAC_OPENEYE_NAME>
N-[4-[2-[4-(2,3-dichlorophenyl)piperazin-1-yl]ethyl]cyclohexyl]adamantane-1-carboxamide

> <PUBCHEM_IUPAC_CAS_NAME>
N-[4-[2-[4-(2,3-dichlorophenyl)-1-piperazinyl]ethyl]cyclohexyl]-1-adamantanecarboxamide

> <PUBCHEM_IUPAC_NAME_MARKUP>
<I>N</I>-[4-[2-[4-(2,3-dichlorophenyl)piperazin-1-yl]ethyl]cyclohexyl]adamantane-1-carboxamide

> <PUBCHEM_IUPAC_NAME>
N-[4-[2-[4-(2,3-dichlorophenyl)piperazin-1-yl]ethyl]cyclohexyl]adamantane-1-carboxamide

> <PUBCHEM_IUPAC_SYSTEMATIC_NAME>
N-[4-[2-[4-[2,3-bis(chloranyl)phenyl]piperazin-1-yl]ethyl]cyclohexyl]adamantane-1-carboxamide

> <PUBCHEM_IUPAC_TRADITIONAL_NAME>
N-[4-[2-[4-(2,3-dichlorophenyl)piperazino]ethyl]cyclohexyl]adamantane-1-carboxamide

> <PUBCHEM_IUPAC_INCHI>
InChI=1S/C29H41Cl2N3O/c30-25-2-1-3-26(27(25)31)34-12-10-33(11-13-34)9-8-20-4-6-24(7-5-20)32-28(35)29-17-21-14-22(18-29)16-23(15-21)19-29/h1-3,20-24H,4-19H2,(H,32,35)

> <PUBCHEM_IUPAC_INCHIKEY>
JUIQFSLMZIMPOO-UHFFFAOYSA-N

> <PUBCHEM_XLOGP3_AA>
6.9

> <PUBCHEM_EXACT_MASS>
517.2626683

> <PUBCHEM_MOLECULAR_FORMULA>
C29H41Cl2N3O

> <PUBCHEM_MOLECULAR_WEIGHT>
518.6

> <PUBCHEM_OPENEYE_CAN_SMILES>
C1CC(CCC1CCN2CCN(CC2)C3=C(C(=CC=C3)Cl)Cl)NC(=O)C45CC6CC(C4)CC(C6)C5

> <PUBCHEM_OPENEYE_ISO_SMILES>
C1CC(CCC1CCN2CCN(CC2)C3=C(C(=CC=C3)Cl)Cl)NC(=O)C45CC6CC(C4)CC(C6)C5

> <PUBCHEM_CACTVS_TPSA>
35.6

> <PUBCHEM_MONOISOTOPIC_WEIGHT>
517.2626683

> <PUBCHEM_TOTAL_CHARGE>
0

> <PUBCHEM_HEAVY_ATOM_COUNT>
35

> <PUBCHEM_ATOM_DEF_STEREO_COUNT>
0

> <PUBCHEM_ATOM_UDEF_STEREO_COUNT>
0

> <PUBCHEM_BOND_DEF_STEREO_COUNT>
0

> <PUBCHEM_BOND_UDEF_STEREO_COUNT>
0

> <PUBCHEM_ISOTOPIC_ATOM_COUNT>
0

> <PUBCHEM_COMPONENT_COUNT>
1

> <PUBCHEM_CACTVS_TAUTO_COUNT>
-1

> <PUBCHEM_COORDINATE_TYPE>
1
5
255

> <PUBCHEM_BONDANNOTATIONS>
30  31  8
30  32  8
31  33  8
32  34  8
33  35  8
34  35  8

$$$$
