135339858
  -OEChem-09292322452D

 57 60  0     0  0  0  0  0  0999 V2000
    2.0000   -2.5461    0.0000 Cl  0  0  0  0  0  0  0  0  0  0  0  0
   10.6486    0.4873    0.0000 O   0  0  0  0  0  0  0  0  0  0  0  0
   14.1788   -0.4886    0.0000 O   0  0  0  0  0  0  0  0  0  0  0  0
    7.1846    0.4739    0.0000 N   0  0  0  0  0  0  0  0  0  0  0  0
    5.4564   -0.5327    0.0000 N   0  0  0  0  0  0  0  0  0  0  0  0
   15.0448    1.0114    0.0000 N   0  0  0  0  0  0  0  0  0  0  0  0
    7.1884   -0.5261    0.0000 C   0  0  0  0  0  0  0  0  0  0  0  0
    6.3166    0.9706    0.0000 C   0  0  0  0  0  0  0  0  0  0  0  0
    6.3243   -1.0294    0.0000 C   0  0  0  0  0  0  0  0  0  0  0  0
    5.4525    0.4672    0.0000 C   0  0  0  0  0  0  0  0  0  0  0  0
    8.0486    0.9773    0.0000 C   0  0  0  0  0  0  0  0  0  0  0  0
    8.9166    0.4806    0.0000 C   0  0  0  0  0  0  0  0  0  0  0  0
    4.5923   -1.0361    0.0000 C   0  0  0  0  0  0  0  0  0  0  0  0
    9.7807    0.9839    0.0000 C   0  0  0  0  0  0  0  0  0  0  0  0
   14.1788    2.5114    0.0000 C   0  0  0  0  0  0  0  0  0  0  0  0
   13.3127    2.0114    0.0000 C   0  0  0  0  0  0  0  0  0  0  0  0
   15.0448    2.0114    0.0000 C   0  0  0  0  0  0  0  0  0  0  0  0
    3.7243   -0.5394    0.0000 C   0  0  0  0  0  0  0  0  0  0  0  0
    4.5961   -2.0361    0.0000 C   0  0  0  0  0  0  0  0  0  0  0  0
   13.3127    1.0114    0.0000 C   0  0  0  0  0  0  0  0  0  0  0  0
   11.5127    0.9906    0.0000 C   0  0  0  0  0  0  0  0  0  0  0  0
   14.1788    0.5114    0.0000 C   0  0  0  0  0  0  0  0  0  0  0  0
   12.4188    0.4768    0.0000 C   0  0  0  0  0  0  0  0  0  0  0  0
   12.4188    2.5461    0.0000 C   0  0  0  0  0  0  0  0  0  0  0  0
   11.5127    2.0322    0.0000 C   0  0  0  0  0  0  0  0  0  0  0  0
    2.8602   -1.0428    0.0000 C   0  0  0  0  0  0  0  0  0  0  0  0
    3.7320   -2.5394    0.0000 C   0  0  0  0  0  0  0  0  0  0  0  0
   15.9108    0.5114    0.0000 C   0  0  0  0  0  0  0  0  0  0  0  0
    2.8641   -2.0428    0.0000 C   0  0  0  0  0  0  0  0  0  0  0  0
    7.4027   -1.1079    0.0000 H   0  0  0  0  0  0  0  0  0  0  0  0
    7.7986   -0.4161    0.0000 H   0  0  0  0  0  0  0  0  0  0  0  0
    6.7133    1.4471    0.0000 H   0  0  0  0  0  0  0  0  0  0  0  0
    5.9162    1.4440    0.0000 H   0  0  0  0  0  0  0  0  0  0  0  0
    5.9276   -1.5059    0.0000 H   0  0  0  0  0  0  0  0  0  0  0  0
    6.7247   -1.5028    0.0000 H   0  0  0  0  0  0  0  0  0  0  0  0
    5.2382    1.0490    0.0000 H   0  0  0  0  0  0  0  0  0  0  0  0
    4.8424    0.3572    0.0000 H   0  0  0  0  0  0  0  0  0  0  0  0
    8.4453    1.4537    0.0000 H   0  0  0  0  0  0  0  0  0  0  0  0
    7.6483    1.4507    0.0000 H   0  0  0  0  0  0  0  0  0  0  0  0
    8.5199    0.0041    0.0000 H   0  0  0  0  0  0  0  0  0  0  0  0
    9.3169    0.0072    0.0000 H   0  0  0  0  0  0  0  0  0  0  0  0
   10.1774    1.4604    0.0000 H   0  0  0  0  0  0  0  0  0  0  0  0
    9.3803    1.4573    0.0000 H   0  0  0  0  0  0  0  0  0  0  0  0
   14.5773    2.9864    0.0000 H   0  0  0  0  0  0  0  0  0  0  0  0
   13.7802    2.9864    0.0000 H   0  0  0  0  0  0  0  0  0  0  0  0
   15.6554    1.9038    0.0000 H   0  0  0  0  0  0  0  0  0  0  0  0
   15.2568    2.5940    0.0000 H   0  0  0  0  0  0  0  0  0  0  0  0
    3.7219    0.0806    0.0000 H   0  0  0  0  0  0  0  0  0  0  0  0
    5.1343   -2.3440    0.0000 H   0  0  0  0  0  0  0  0  0  0  0  0
   12.4260   -0.1432    0.0000 H   0  0  0  0  0  0  0  0  0  0  0  0
   12.4260    3.1660    0.0000 H   0  0  0  0  0  0  0  0  0  0  0  0
   10.9770    2.3443    0.0000 H   0  0  0  0  0  0  0  0  0  0  0  0
    2.3221   -0.7348    0.0000 H   0  0  0  0  0  0  0  0  0  0  0  0
    3.7344   -3.1594    0.0000 H   0  0  0  0  0  0  0  0  0  0  0  0
   15.6008   -0.0255    0.0000 H   0  0  0  0  0  0  0  0  0  0  0  0
   16.4477    0.2014    0.0000 H   0  0  0  0  0  0  0  0  0  0  0  0
   16.2208    1.0484    0.0000 H   0  0  0  0  0  0  0  0  0  0  0  0
  1 29  1  0  0  0  0
  2 14  1  0  0  0  0
  2 21  1  0  0  0  0
  3 22  2  0  0  0  0
  4  7  1  0  0  0  0
  4  8  1  0  0  0  0
  4 11  1  0  0  0  0
  5  9  1  0  0  0  0
  5 10  1  0  0  0  0
  5 13  1  0  0  0  0
  6 17  1  0  0  0  0
  6 22  1  0  0  0  0
  6 28  1  0  0  0  0
  7  9  1  0  0  0  0
  7 30  1  0  0  0  0
  7 31  1  0  0  0  0
  8 10  1  0  0  0  0
  8 32  1  0  0  0  0
  8 33  1  0  0  0  0
  9 34  1  0  0  0  0
  9 35  1  0  0  0  0
 10 36  1  0  0  0  0
 10 37  1  0  0  0  0
 11 12  1  0  0  0  0
 11 38  1  0  0  0  0
 11 39  1  0  0  0  0
 12 14  1  0  0  0  0
 12 40  1  0  0  0  0
 12 41  1  0  0  0  0
 13 18  2  0  0  0  0
 13 19  1  0  0  0  0
 14 42  1  0  0  0  0
 14 43  1  0  0  0  0
 15 16  1  0  0  0  0
 15 17  1  0  0  0  0
 15 44  1  0  0  0  0
 15 45  1  0  0  0  0
 16 20  2  0  0  0  0
 16 24  1  0  0  0  0
 17 46  1  0  0  0  0
 17 47  1  0  0  0  0
 18 26  1  0  0  0  0
 18 48  1  0  0  0  0
 19 27  2  0  0  0  0
 19 49  1  0  0  0  0
 20 22  1  0  0  0  0
 20 23  1  0  0  0  0
 21 23  2  0  0  0  0
 21 25  1  0  0  0  0
 23 50  1  0  0  0  0
 24 25  2  0  0  0  0
 24 51  1  0  0  0  0
 25 52  1  0  0  0  0
 26 29  2  0  0  0  0
 26 53  1  0  0  0  0
 27 29  1  0  0  0  0
 27 54  1  0  0  0  0
 28 55  1  0  0  0  0
 28 56  1  0  0  0  0
 28 57  1  0  0  0  0
M  END
> <PUBCHEM_COMPOUND_CID>
135339858

> <PUBCHEM_COMPOUND_CANONICALIZED>
1

> <PUBCHEM_CACTVS_COMPLEXITY>
532

> <PUBCHEM_CACTVS_HBOND_ACCEPTOR>
4

> <PUBCHEM_CACTVS_HBOND_DONOR>
0

> <PUBCHEM_CACTVS_ROTATABLE_BOND>
6

> <PUBCHEM_CACTVS_SUBSKEYS>
AAADceB7MAAEAAAAAAAAAAAAAAAAAAAAAAA8eIEAAAAAAACxQAAAHgIAAAAADA7hmCYyxoMABACIAiVSUACCCAAlJwAIiAEObsgMZjLFt5uWOSjmxhHI6Ye6yZCOoABBAAAQAABAAIIAACAAAAAAAAAAAA==

> <PUBCHEM_IUPAC_OPENEYE_NAME>
7-[3-[4-(4-chlorophenyl)piperazin-1-yl]propoxy]-2-methyl-3,4-dihydroisoquinolin-1-one

> <PUBCHEM_IUPAC_CAS_NAME>
7-[3-[4-(4-chlorophenyl)-1-piperazinyl]propoxy]-2-methyl-3,4-dihydroisoquinolin-1-one

> <PUBCHEM_IUPAC_NAME_MARKUP>
7-[3-[4-(4-chlorophenyl)piperazin-1-yl]propoxy]-2-methyl-3,4-dihydroisoquinolin-1-one

> <PUBCHEM_IUPAC_NAME>
7-[3-[4-(4-chlorophenyl)piperazin-1-yl]propoxy]-2-methyl-3,4-dihydroisoquinolin-1-one

> <PUBCHEM_IUPAC_SYSTEMATIC_NAME>
7-[3-[4-(4-chlorophenyl)piperazin-1-yl]propoxy]-2-methyl-3,4-dihydroisoquinolin-1-one

> <PUBCHEM_IUPAC_TRADITIONAL_NAME>
7-[3-[4-(4-chlorophenyl)piperazino]propoxy]-2-methyl-3,4-dihydroisocarbostyril

> <PUBCHEM_IUPAC_INCHI>
InChI=1S/C23H28ClN3O2/c1-25-11-9-18-3-8-21(17-22(18)23(25)28)29-16-2-10-26-12-14-27(15-13-26)20-6-4-19(24)5-7-20/h3-8,17H,2,9-16H2,1H3

> <PUBCHEM_IUPAC_INCHIKEY>
OFNWXXGHORGIMJ-UHFFFAOYSA-N

> <PUBCHEM_XLOGP3_AA>
4

> <PUBCHEM_EXACT_MASS>
413.1870048

> <PUBCHEM_MOLECULAR_FORMULA>
C23H28ClN3O2

> <PUBCHEM_MOLECULAR_WEIGHT>
413.9

> <PUBCHEM_OPENEYE_CAN_SMILES>
CN1CCC2=C(C1=O)C=C(C=C2)OCCCN3CCN(CC3)C4=CC=C(C=C4)Cl

> <PUBCHEM_OPENEYE_ISO_SMILES>
CN1CCC2=C(C1=O)C=C(C=C2)OCCCN3CCN(CC3)C4=CC=C(C=C4)Cl

> <PUBCHEM_CACTVS_TPSA>
36

> <PUBCHEM_MONOISOTOPIC_WEIGHT>
413.1870048

> <PUBCHEM_TOTAL_CHARGE>
0

> <PUBCHEM_HEAVY_ATOM_COUNT>
29

> <PUBCHEM_ATOM_DEF_STEREO_COUNT>
0

> <PUBCHEM_ATOM_UDEF_STEREO_COUNT>
0

> <PUBCHEM_BOND_DEF_STEREO_COUNT>
0

> <PUBCHEM_BOND_UDEF_STEREO_COUNT>
0

> <PUBCHEM_ISOTOPIC_ATOM_COUNT>
0

> <PUBCHEM_COMPONENT_COUNT>
1

> <PUBCHEM_CACTVS_TAUTO_COUNT>
-1

> <PUBCHEM_COORDINATE_TYPE>
1
5
255

> <PUBCHEM_BONDANNOTATIONS>
13  18  8
13  19  8
16  20  8
16  24  8
18  26  8
19  27  8
20  23  8
21  23  8
21  25  8
24  25  8
26  29  8
27  29  8

$$$$
