78209992
  -OEChem-09292322052D

 55 58  0     1  0  0  0  0  0999 V2000
   11.5078   -3.5272    0.0000 Cl  0  0  0  0  0  0  0  0  0  0  0  0
    9.7875   -2.5072    0.0000 F   0  0  0  0  0  0  0  0  0  0  0  0
    6.3301    0.5272    0.0000 O   0  0  0  0  0  0  0  0  0  0  0  0
    5.4641    2.0272    0.0000 O   0  0  0  0  0  0  0  0  0  0  0  0
    6.3301    2.5272    0.0000 O   0  0  0  0  0  0  0  0  0  0  0  0
    4.5981    0.5272    0.0000 N   0  0  0  0  0  0  0  0  0  0  0  0
    2.8660   -0.4728    0.0000 N   0  0  3  0  0  0  0  0  0  0  0  0
    9.8106   -0.5074    0.0000 N   0  0  0  0  0  0  0  0  0  0  0  0
    9.8222    2.5619    0.0000 N   0  0  0  0  0  0  0  0  0  0  0  0
   10.7282    1.0064    0.0000 N   0  0  0  0  0  0  0  0  0  0  0  0
    3.7320    1.0272    0.0000 C   0  0  1  0  0  0  0  0  0  0  0  0
    2.8660    0.5272    0.0000 C   0  0  0  0  0  0  0  0  0  0  0  0
    4.5981   -0.4728    0.0000 C   0  0  0  0  0  0  0  0  0  0  0  0
    3.7320   -0.9728    0.0000 C   0  0  0  0  0  0  0  0  0  0  0  0
    3.7320    2.0272    0.0000 C   0  0  0  0  0  0  0  0  0  0  0  0
    2.0000   -0.9728    0.0000 C   0  0  0  0  0  0  0  0  0  0  0  0
    5.4641    1.0272    0.0000 C   0  0  0  0  0  0  0  0  0  0  0  0
    7.1962    1.0272    0.0000 C   0  0  0  0  0  0  0  0  0  0  0  0
    8.0622    0.5272    0.0000 C   0  0  0  0  0  0  0  0  0  0  0  0
    7.1962    2.0272    0.0000 C   0  0  0  0  0  0  0  0  0  0  0  0
    8.9282    1.0272    0.0000 C   0  0  0  0  0  0  0  0  0  0  0  0
    8.9282    2.0272    0.0000 C   0  0  0  0  0  0  0  0  0  0  0  0
    8.0622    2.5272    0.0000 C   0  0  0  0  0  0  0  0  0  0  0  0
    9.8222    0.4926    0.0000 C   0  0  0  0  0  0  0  0  0  0  0  0
   10.6708   -1.0174    0.0000 C   0  0  0  0  0  0  0  0  0  0  0  0
   10.7282    2.0480    0.0000 C   0  0  0  0  0  0  0  0  0  0  0  0
    6.3301    3.5272    0.0000 C   0  0  0  0  0  0  0  0  0  0  0  0
   10.6592   -2.0173    0.0000 C   0  0  0  0  0  0  0  0  0  0  0  0
   11.5425   -0.5274    0.0000 C   0  0  0  0  0  0  0  0  0  0  0  0
   11.5194   -2.5273    0.0000 C   0  0  0  0  0  0  0  0  0  0  0  0
   12.4027   -1.0374    0.0000 C   0  0  0  0  0  0  0  0  0  0  0  0
   12.3911   -2.0373    0.0000 C   0  0  0  0  0  0  0  0  0  0  0  0
    4.2690    1.3372    0.0000 H   0  0  0  0  0  0  0  0  0  0  0  0
    2.6540    1.1098    0.0000 H   0  0  0  0  0  0  0  0  0  0  0  0
    2.2554    0.4195    0.0000 H   0  0  0  0  0  0  0  0  0  0  0  0
    4.8101   -1.0554    0.0000 H   0  0  0  0  0  0  0  0  0  0  0  0
    5.2087   -0.3651    0.0000 H   0  0  0  0  0  0  0  0  0  0  0  0
    3.3335   -1.4477    0.0000 H   0  0  0  0  0  0  0  0  0  0  0  0
    4.1306   -1.4477    0.0000 H   0  0  0  0  0  0  0  0  0  0  0  0
    4.3520    2.0272    0.0000 H   0  0  0  0  0  0  0  0  0  0  0  0
    3.7320    2.6472    0.0000 H   0  0  0  0  0  0  0  0  0  0  0  0
    3.1120    2.0272    0.0000 H   0  0  0  0  0  0  0  0  0  0  0  0
    1.6900   -0.4359    0.0000 H   0  0  0  0  0  0  0  0  0  0  0  0
    1.4631   -1.2828    0.0000 H   0  0  0  0  0  0  0  0  0  0  0  0
    2.3100   -1.5097    0.0000 H   0  0  0  0  0  0  0  0  0  0  0  0
    8.0622   -0.0928    0.0000 H   0  0  0  0  0  0  0  0  0  0  0  0
    8.0622    3.1472    0.0000 H   0  0  0  0  0  0  0  0  0  0  0  0
    9.2701   -0.8112    0.0000 H   0  0  0  0  0  0  0  0  0  0  0  0
   11.2639    2.3601    0.0000 H   0  0  0  0  0  0  0  0  0  0  0  0
    6.9501    3.5272    0.0000 H   0  0  0  0  0  0  0  0  0  0  0  0
    6.3301    4.1472    0.0000 H   0  0  0  0  0  0  0  0  0  0  0  0
    5.7101    3.5272    0.0000 H   0  0  0  0  0  0  0  0  0  0  0  0
   11.5497    0.0925    0.0000 H   0  0  0  0  0  0  0  0  0  0  0  0
   12.9432   -0.7336    0.0000 H   0  0  0  0  0  0  0  0  0  0  0  0
   12.9245   -2.3535    0.0000 H   0  0  0  0  0  0  0  0  0  0  0  0
  1 30  1  0  0  0  0
  2 28  1  0  0  0  0
  3 17  1  0  0  0  0
  3 18  1  0  0  0  0
  4 17  2  0  0  0  0
  5 20  1  0  0  0  0
  5 27  1  0  0  0  0
  6 11  1  0  0  0  0
  6 13  1  0  0  0  0
  6 17  1  0  0  0  0
  7 12  1  0  0  0  0
  7 14  1  0  0  0  0
  7 16  1  0  0  0  0
  8 24  1  0  0  0  0
  8 25  1  0  0  0  0
  8 48  1  0  0  0  0
  9 22  1  0  0  0  0
  9 26  2  0  0  0  0
 10 24  2  0  0  0  0
 10 26  1  0  0  0  0
 11 12  1  0  0  0  0
 11 15  1  1  0  0  0
 11 33  1  0  0  0  0
 12 34  1  0  0  0  0
 12 35  1  0  0  0  0
 13 14  1  0  0  0  0
 13 36  1  0  0  0  0
 13 37  1  0  0  0  0
 14 38  1  0  0  0  0
 14 39  1  0  0  0  0
 15 40  1  0  0  0  0
 15 41  1  0  0  0  0
 15 42  1  0  0  0  0
 16 43  1  0  0  0  0
 16 44  1  0  0  0  0
 16 45  1  0  0  0  0
 18 19  1  0  0  0  0
 18 20  2  0  0  0  0
 19 21  2  0  0  0  0
 19 46  1  0  0  0  0
 20 23  1  0  0  0  0
 21 22  1  0  0  0  0
 21 24  1  0  0  0  0
 22 23  2  0  0  0  0
 23 47  1  0  0  0  0
 25 28  2  0  0  0  0
 25 29  1  0  0  0  0
 26 49  1  0  0  0  0
 27 50  1  0  0  0  0
 27 51  1  0  0  0  0
 27 52  1  0  0  0  0
 28 30  1  0  0  0  0
 29 31  2  0  0  0  0
 29 53  1  0  0  0  0
 30 32  2  0  0  0  0
 31 32  1  0  0  0  0
 31 54  1  0  0  0  0
 32 55  1  0  0  0  0
M  END
> <PUBCHEM_COMPOUND_CID>
78209992

> <PUBCHEM_COMPOUND_CANONICALIZED>
1

> <PUBCHEM_CACTVS_COMPLEXITY>
649

> <PUBCHEM_CACTVS_HBOND_ACCEPTOR>
8

> <PUBCHEM_CACTVS_HBOND_DONOR>
1

> <PUBCHEM_CACTVS_ROTATABLE_BOND>
5

> <PUBCHEM_CACTVS_SUBSKEYS>
AAADceB7sQAEAAAAAAAAAAAAAAAAAAAAAAA8eIEAAAAAAACx9AAAHwIQAAAADC7Bni43/vfIFACoAyZjfACCiCkxJ6AJ2CA+7piNbuLF+9ucNipu1hvK6Cew0BMOIEABAgICQABAgAIEBASAAAAAAAAAAA==

> <PUBCHEM_IUPAC_OPENEYE_NAME>
[4-(3-chloro-2-fluoro-anilino)-7-methoxy-quinazolin-6-yl] (2R)-2,4-dimethylpiperazine-1-carboxylate

> <PUBCHEM_IUPAC_CAS_NAME>
(2R)-2,4-dimethyl-1-piperazinecarboxylic acid [4-(3-chloro-2-fluoroanilino)-7-methoxy-6-quinazolinyl] ester

> <PUBCHEM_IUPAC_NAME_MARKUP>
[4-(3-chloro-2-fluoroanilino)-7-methoxyquinazolin-6-yl] (2<I>R</I>)-2,4-dimethylpiperazine-1-carboxylate

> <PUBCHEM_IUPAC_NAME>
[4-(3-chloro-2-fluoroanilino)-7-methoxyquinazolin-6-yl] (2R)-2,4-dimethylpiperazine-1-carboxylate

> <PUBCHEM_IUPAC_SYSTEMATIC_NAME>
[4-[(3-chloranyl-2-fluoranyl-phenyl)amino]-7-methoxy-quinazolin-6-yl] (2R)-2,4-dimethylpiperazine-1-carboxylate

> <PUBCHEM_IUPAC_TRADITIONAL_NAME>
(2R)-2,4-dimethylpiperazine-1-carboxylic acid [4-(3-chloro-2-fluoro-anilino)-7-methoxy-quinazolin-6-yl] ester

> <PUBCHEM_IUPAC_INCHI>
InChI=1S/C22H23ClFN5O3/c1-13-11-28(2)7-8-29(13)22(30)32-19-9-14-17(10-18(19)31-3)25-12-26-21(14)27-16-6-4-5-15(23)20(16)24/h4-6,9-10,12-13H,7-8,11H2,1-3H3,(H,25,26,27)/t13-/m1/s1

> <PUBCHEM_IUPAC_INCHIKEY>
MXDSJQHFFDGFDK-CYBMUJFWSA-N

> <PUBCHEM_XLOGP3_AA>
4.1

> <PUBCHEM_EXACT_MASS>
459.1473455

> <PUBCHEM_MOLECULAR_FORMULA>
C22H23ClFN5O3

> <PUBCHEM_MOLECULAR_WEIGHT>
459.9

> <PUBCHEM_OPENEYE_CAN_SMILES>
CC1CN(CCN1C(=O)OC2=C(C=C3C(=C2)C(=NC=N3)NC4=C(C(=CC=C4)Cl)F)OC)C

> <PUBCHEM_OPENEYE_ISO_SMILES>
C[C@@H]1CN(CCN1C(=O)OC2=C(C=C3C(=C2)C(=NC=N3)NC4=C(C(=CC=C4)Cl)F)OC)C

> <PUBCHEM_CACTVS_TPSA>
79.8

> <PUBCHEM_MONOISOTOPIC_WEIGHT>
459.1473455

> <PUBCHEM_TOTAL_CHARGE>
0

> <PUBCHEM_HEAVY_ATOM_COUNT>
32

> <PUBCHEM_ATOM_DEF_STEREO_COUNT>
1

> <PUBCHEM_ATOM_UDEF_STEREO_COUNT>
0

> <PUBCHEM_BOND_DEF_STEREO_COUNT>
0

> <PUBCHEM_BOND_UDEF_STEREO_COUNT>
0

> <PUBCHEM_ISOTOPIC_ATOM_COUNT>
0

> <PUBCHEM_COMPONENT_COUNT>
1

> <PUBCHEM_CACTVS_TAUTO_COUNT>
3

> <PUBCHEM_COORDINATE_TYPE>
1
5
255

> <PUBCHEM_BONDANNOTATIONS>
10  24  8
10  26  8
11  15  5
18  19  8
18  20  8
19  21  8
20  23  8
21  22  8
21  24  8
22  23  8
25  28  8
25  29  8
28  30  8
29  31  8
30  32  8
31  32  8
9  22  8
9  26  8

$$$$
