44415612
  -OEChem-09292322282D

 69 74  0     0  0  0  0  0  0999 V2000
    8.7204    0.6970    0.0000 Cl  0  0  0  0  0  0  0  0  0  0  0  0
    4.0169   -3.1299    0.0000 O   0  0  0  0  0  0  0  0  0  0  0  0
    6.6150   -1.6299    0.0000 O   0  0  0  0  0  0  0  0  0  0  0  0
    3.9491    2.4617    0.0000 N   0  0  0  0  0  0  0  0  0  0  0  0
    3.0814    4.2636    0.0000 N   0  0  0  0  0  0  0  0  0  0  0  0
    4.8830   -0.6299    0.0000 N   0  0  0  0  0  0  0  0  0  0  0  0
    5.3830    1.5607    0.0000 N   0  0  0  0  0  0  0  0  0  0  0  0
    4.8830   -1.6299    0.0000 N   0  0  0  0  0  0  0  0  0  0  0  0
    4.5125    3.2879    0.0000 C   0  0  0  0  0  0  0  0  0  0  0  0
    2.9519    2.5364    0.0000 C   0  0  0  0  0  0  0  0  0  0  0  0
    4.0786    4.1889    0.0000 C   0  0  0  0  0  0  0  0  0  0  0  0
    2.5180    3.4374    0.0000 C   0  0  0  0  0  0  0  0  0  0  0  0
    4.3830    1.5607    0.0000 C   0  0  0  0  0  0  0  0  0  0  0  0
    3.7595    0.7789    0.0000 C   0  0  0  0  0  0  0  0  0  0  0  0
    2.6475    5.1646    0.0000 C   0  0  0  0  0  0  0  0  0  0  0  0
    3.9820   -0.1960    0.0000 C   0  0  0  0  0  0  0  0  0  0  0  0
    5.7840   -0.1960    0.0000 C   0  0  0  0  0  0  0  0  0  0  0  0
    6.0065    0.7789    0.0000 C   0  0  0  0  0  0  0  0  0  0  0  0
    2.7690    1.1012    0.0000 C   0  0  0  0  0  0  0  0  0  0  0  0
    3.2295   -0.9162    0.0000 C   0  0  0  0  0  0  0  0  0  0  0  0
    2.0000    0.3987    0.0000 C   0  0  0  0  0  0  0  0  0  0  0  0
    6.5365   -0.9162    0.0000 C   0  0  0  0  0  0  0  0  0  0  0  0
    6.9970    1.1012    0.0000 C   0  0  0  0  0  0  0  0  0  0  0  0
    2.2318   -0.6169    0.0000 C   0  0  0  0  0  0  0  0  0  0  0  0
    5.7490   -2.1299    0.0000 C   0  0  0  0  0  0  0  0  0  0  0  0
    5.7490   -3.1299    0.0000 C   0  0  0  0  0  0  0  0  0  0  0  0
    7.5342   -0.6169    0.0000 C   0  0  0  0  0  0  0  0  0  0  0  0
    7.7660    0.3986    0.0000 C   0  0  0  0  0  0  0  0  0  0  0  0
    6.6150   -3.6299    0.0000 C   0  0  0  0  0  0  0  0  0  0  0  0
    4.8830   -3.6299    0.0000 C   0  0  0  0  0  0  0  0  0  0  0  0
    6.6150   -4.6299    0.0000 C   0  0  0  0  0  0  0  0  0  0  0  0
    4.8830   -4.6299    0.0000 C   0  0  0  0  0  0  0  0  0  0  0  0
    5.7490   -5.1299    0.0000 C   0  0  0  0  0  0  0  0  0  0  0  0
    7.5090   -3.0953    0.0000 C   0  0  0  0  0  0  0  0  0  0  0  0
    7.5090   -5.1646    0.0000 C   0  0  0  0  0  0  0  0  0  0  0  0
    8.4150   -3.6091    0.0000 C   0  0  0  0  0  0  0  0  0  0  0  0
    8.4150   -4.6508    0.0000 C   0  0  0  0  0  0  0  0  0  0  0  0
    3.1509   -3.6299    0.0000 C   0  0  0  0  0  0  0  0  0  0  0  0
    3.1509   -4.6299    0.0000 C   0  0  0  0  0  0  0  0  0  0  0  0
    4.9563    2.8550    0.0000 H   0  0  0  0  0  0  0  0  0  0  0  0
    5.0159    3.6498    0.0000 H   0  0  0  0  0  0  0  0  0  0  0  0
    2.3551    2.3685    0.0000 H   0  0  0  0  0  0  0  0  0  0  0  0
    3.0137    1.9195    0.0000 H   0  0  0  0  0  0  0  0  0  0  0  0
    4.6754    4.3568    0.0000 H   0  0  0  0  0  0  0  0  0  0  0  0
    4.0168    4.8058    0.0000 H   0  0  0  0  0  0  0  0  0  0  0  0
    2.0742    3.8703    0.0000 H   0  0  0  0  0  0  0  0  0  0  0  0
    2.0146    3.0755    0.0000 H   0  0  0  0  0  0  0  0  0  0  0  0
    3.2061    5.4336    0.0000 H   0  0  0  0  0  0  0  0  0  0  0  0
    2.3785    5.7232    0.0000 H   0  0  0  0  0  0  0  0  0  0  0  0
    2.0889    4.8956    0.0000 H   0  0  0  0  0  0  0  0  0  0  0  0
    2.6380    1.7072    0.0000 H   0  0  0  0  0  0  0  0  0  0  0  0
    3.3744   -1.5190    0.0000 H   0  0  0  0  0  0  0  0  0  0  0  0
    4.3460   -1.9399    0.0000 H   0  0  0  0  0  0  0  0  0  0  0  0
    1.4083    0.5837    0.0000 H   0  0  0  0  0  0  0  0  0  0  0  0
    6.3916   -1.5190    0.0000 H   0  0  0  0  0  0  0  0  0  0  0  0
    7.1280    1.7072    0.0000 H   0  0  0  0  0  0  0  0  0  0  0  0
    1.7789   -1.0403    0.0000 H   0  0  0  0  0  0  0  0  0  0  0  0
    7.9871   -1.0404    0.0000 H   0  0  0  0  0  0  0  0  0  0  0  0
    4.3460   -4.9399    0.0000 H   0  0  0  0  0  0  0  0  0  0  0  0
    5.7490   -5.7499    0.0000 H   0  0  0  0  0  0  0  0  0  0  0  0
    7.5018   -2.4753    0.0000 H   0  0  0  0  0  0  0  0  0  0  0  0
    7.5018   -5.7846    0.0000 H   0  0  0  0  0  0  0  0  0  0  0  0
    8.9508   -3.2971    0.0000 H   0  0  0  0  0  0  0  0  0  0  0  0
    8.9508   -4.9628    0.0000 H   0  0  0  0  0  0  0  0  0  0  0  0
    2.9389   -3.0473    0.0000 H   0  0  0  0  0  0  0  0  0  0  0  0
    2.5403   -3.7376    0.0000 H   0  0  0  0  0  0  0  0  0  0  0  0
    2.5309   -4.6299    0.0000 H   0  0  0  0  0  0  0  0  0  0  0  0
    3.1509   -5.2499    0.0000 H   0  0  0  0  0  0  0  0  0  0  0  0
    3.7709   -4.6299    0.0000 H   0  0  0  0  0  0  0  0  0  0  0  0
  1 28  1  0  0  0  0
  2 30  1  0  0  0  0
  2 38  1  0  0  0  0
  3 25  2  0  0  0  0
  4  9  1  0  0  0  0
  4 10  1  0  0  0  0
  4 13  1  0  0  0  0
  5 11  1  0  0  0  0
  5 12  1  0  0  0  0
  5 15  1  0  0  0  0
  6  8  1  0  0  0  0
  6 16  1  0  0  0  0
  6 17  1  0  0  0  0
  7 13  2  0  0  0  0
  7 18  1  0  0  0  0
  8 25  1  0  0  0  0
  8 53  1  0  0  0  0
  9 11  1  0  0  0  0
  9 40  1  0  0  0  0
  9 41  1  0  0  0  0
 10 12  1  0  0  0  0
 10 42  1  0  0  0  0
 10 43  1  0  0  0  0
 11 44  1  0  0  0  0
 11 45  1  0  0  0  0
 12 46  1  0  0  0  0
 12 47  1  0  0  0  0
 13 14  1  0  0  0  0
 14 16  1  0  0  0  0
 14 19  2  0  0  0  0
 15 48  1  0  0  0  0
 15 49  1  0  0  0  0
 15 50  1  0  0  0  0
 16 20  2  0  0  0  0
 17 18  2  0  0  0  0
 17 22  1  0  0  0  0
 18 23  1  0  0  0  0
 19 21  1  0  0  0  0
 19 51  1  0  0  0  0
 20 24  1  0  0  0  0
 20 52  1  0  0  0  0
 21 24  2  0  0  0  0
 21 54  1  0  0  0  0
 22 27  2  0  0  0  0
 22 55  1  0  0  0  0
 23 28  2  0  0  0  0
 23 56  1  0  0  0  0
 24 57  1  0  0  0  0
 25 26  1  0  0  0  0
 26 29  1  0  0  0  0
 26 30  2  0  0  0  0
 27 28  1  0  0  0  0
 27 58  1  0  0  0  0
 29 31  1  0  0  0  0
 29 34  2  0  0  0  0
 30 32  1  0  0  0  0
 31 33  1  0  0  0  0
 31 35  2  0  0  0  0
 32 33  2  0  0  0  0
 32 59  1  0  0  0  0
 33 60  1  0  0  0  0
 34 36  1  0  0  0  0
 34 61  1  0  0  0  0
 35 37  1  0  0  0  0
 35 62  1  0  0  0  0
 36 37  2  0  0  0  0
 36 63  1  0  0  0  0
 37 64  1  0  0  0  0
 38 39  1  0  0  0  0
 38 65  1  0  0  0  0
 38 66  1  0  0  0  0
 39 67  1  0  0  0  0
 39 68  1  0  0  0  0
 39 69  1  0  0  0  0
M  END
> <PUBCHEM_COMPOUND_CID>
44415612

> <PUBCHEM_COMPOUND_CANONICALIZED>
1

> <PUBCHEM_CACTVS_COMPLEXITY>
879

> <PUBCHEM_CACTVS_HBOND_ACCEPTOR>
5

> <PUBCHEM_CACTVS_HBOND_DONOR>
1

> <PUBCHEM_CACTVS_ROTATABLE_BOND>
5

> <PUBCHEM_CACTVS_SUBSKEYS>
AAADceB7sAAEAAAAAAAAAAAAAAAAAAAAAAA8YMGCBAAAAADBVAAAHgIYAAAADA7hmCYzxsNiBACoAidydACCDAElJwAbqAEuftgMZvbF/5uWOWjm4BHI6QeYyPCOoABDAAIaACBAAIYABDQAQAAAAAAAAA==

> <PUBCHEM_IUPAC_OPENEYE_NAME>
N-[3-chloro-6-(4-methylpiperazin-1-yl)benzo[b][1,4]benzodiazepin-11-yl]-2-ethoxy-naphthalene-1-carboxamide

> <PUBCHEM_IUPAC_CAS_NAME>
N-[3-chloro-6-(4-methyl-1-piperazinyl)-11-benzo[b][1,4]benzodiazepinyl]-2-ethoxy-1-naphthalenecarboxamide

> <PUBCHEM_IUPAC_NAME_MARKUP>
<I>N</I>-[3-chloro-6-(4-methylpiperazin-1-yl)benzo[b][1,4]benzodiazepin-11-yl]-2-ethoxynaphthalene-1-carboxamide

> <PUBCHEM_IUPAC_NAME>
N-[3-chloro-6-(4-methylpiperazin-1-yl)benzo[b][1,4]benzodiazepin-11-yl]-2-ethoxynaphthalene-1-carboxamide

> <PUBCHEM_IUPAC_SYSTEMATIC_NAME>
N-[3-chloranyl-6-(4-methylpiperazin-1-yl)benzo[b][1,4]benzodiazepin-11-yl]-2-ethoxy-naphthalene-1-carboxamide

> <PUBCHEM_IUPAC_TRADITIONAL_NAME>
N-[3-chloro-6-(4-methylpiperazino)benzo[b][1,4]benzodiazepin-11-yl]-2-ethoxy-1-naphthamide

> <PUBCHEM_IUPAC_INCHI>
InChI=1S/C31H30ClN5O2/c1-3-39-28-15-12-21-8-4-5-9-23(21)29(28)31(38)34-37-26-11-7-6-10-24(26)30(36-18-16-35(2)17-19-36)33-25-20-22(32)13-14-27(25)37/h4-15,20H,3,16-19H2,1-2H3,(H,34,38)

> <PUBCHEM_IUPAC_INCHIKEY>
GBAMNIHBRPISDN-UHFFFAOYSA-N

> <PUBCHEM_XLOGP3_AA>
6

> <PUBCHEM_EXACT_MASS>
539.2088029

> <PUBCHEM_MOLECULAR_FORMULA>
C31H30ClN5O2

> <PUBCHEM_MOLECULAR_WEIGHT>
540.1

> <PUBCHEM_OPENEYE_CAN_SMILES>
CCOC1=C(C2=CC=CC=C2C=C1)C(=O)NN3C4=C(C=C(C=C4)Cl)N=C(C5=CC=CC=C53)N6CCN(CC6)C

> <PUBCHEM_OPENEYE_ISO_SMILES>
CCOC1=C(C2=CC=CC=C2C=C1)C(=O)NN3C4=C(C=C(C=C4)Cl)N=C(C5=CC=CC=C53)N6CCN(CC6)C

> <PUBCHEM_CACTVS_TPSA>
60.4

> <PUBCHEM_MONOISOTOPIC_WEIGHT>
539.2088029

> <PUBCHEM_TOTAL_CHARGE>
0

> <PUBCHEM_HEAVY_ATOM_COUNT>
39

> <PUBCHEM_ATOM_DEF_STEREO_COUNT>
0

> <PUBCHEM_ATOM_UDEF_STEREO_COUNT>
0

> <PUBCHEM_BOND_DEF_STEREO_COUNT>
0

> <PUBCHEM_BOND_UDEF_STEREO_COUNT>
0

> <PUBCHEM_ISOTOPIC_ATOM_COUNT>
0

> <PUBCHEM_COMPONENT_COUNT>
1

> <PUBCHEM_CACTVS_TAUTO_COUNT>
-1

> <PUBCHEM_COORDINATE_TYPE>
1
5
255

> <PUBCHEM_BONDANNOTATIONS>
14  16  8
14  19  8
16  20  8
17  18  8
17  22  8
18  23  8
19  21  8
20  24  8
21  24  8
22  27  8
23  28  8
26  29  8
26  30  8
27  28  8
29  31  8
29  34  8
30  32  8
31  33  8
31  35  8
32  33  8
34  36  8
35  37  8
36  37  8

$$$$
