45268345
  -OEChem-09292322282D

 53 56  0     0  0  0  0  0  0999 V2000
    6.5306    6.2852    0.0000 Cl  0  0  0  0  0  0  0  0  0  0  0  0
    2.0000   -5.1626    0.0000 Cl  0  0  0  0  0  0  0  0  0  0  0  0
    3.9045   -2.4936    0.0000 O   0  0  0  0  0  0  0  0  0  0  0  0
    6.5306    0.2852    0.0000 N   0  0  0  0  0  0  0  0  0  0  0  0
    5.6646   -2.2148    0.0000 N   0  0  0  0  0  0  0  0  0  0  0  0
    5.1646   -3.7536    0.0000 N   0  0  0  0  0  0  0  0  0  0  0  0
    6.5306    2.2852    0.0000 C   0  0  0  0  0  0  0  0  0  0  0  0
    7.3967    1.7852    0.0000 C   0  0  0  0  0  0  0  0  0  0  0  0
    5.6646    1.7852    0.0000 C   0  0  0  0  0  0  0  0  0  0  0  0
    7.3967    0.7852    0.0000 C   0  0  0  0  0  0  0  0  0  0  0  0
    5.6646    0.7852    0.0000 C   0  0  0  0  0  0  0  0  0  0  0  0
    6.5306   -0.7148    0.0000 C   0  0  0  0  0  0  0  0  0  0  0  0
    5.6646   -1.2148    0.0000 C   0  0  0  0  0  0  0  0  0  0  0  0
    6.5306    3.2852    0.0000 C   0  0  0  0  0  0  0  0  0  0  0  0
    6.4736   -2.8026    0.0000 C   0  0  0  0  0  0  0  0  0  0  0  0
    6.1646   -3.7536    0.0000 C   0  0  0  0  0  0  0  0  0  0  0  0
    4.8556   -2.8026    0.0000 C   0  0  0  0  0  0  0  0  0  0  0  0
    7.3967    3.7852    0.0000 C   0  0  0  0  0  0  0  0  0  0  0  0
    5.6646    3.7852    0.0000 C   0  0  0  0  0  0  0  0  0  0  0  0
    4.5768   -4.5626    0.0000 C   0  0  0  0  0  0  0  0  0  0  0  0
    7.3967    4.7852    0.0000 C   0  0  0  0  0  0  0  0  0  0  0  0
    5.6646    4.7852    0.0000 C   0  0  0  0  0  0  0  0  0  0  0  0
    6.5306    5.2852    0.0000 C   0  0  0  0  0  0  0  0  0  0  0  0
    3.5823   -4.4581    0.0000 C   0  0  0  0  0  0  0  0  0  0  0  0
    4.9836   -5.4762    0.0000 C   0  0  0  0  0  0  0  0  0  0  0  0
    2.9945   -5.2671    0.0000 C   0  0  0  0  0  0  0  0  0  0  0  0
    4.3958   -6.2852    0.0000 C   0  0  0  0  0  0  0  0  0  0  0  0
    3.4013   -6.1807    0.0000 C   0  0  0  0  0  0  0  0  0  0  0  0
    7.0676    2.5952    0.0000 H   0  0  0  0  0  0  0  0  0  0  0  0
    8.0073    1.6776    0.0000 H   0  0  0  0  0  0  0  0  0  0  0  0
    7.6087    2.3678    0.0000 H   0  0  0  0  0  0  0  0  0  0  0  0
    5.4526    2.3678    0.0000 H   0  0  0  0  0  0  0  0  0  0  0  0
    5.0540    1.6776    0.0000 H   0  0  0  0  0  0  0  0  0  0  0  0
    7.6087    0.2026    0.0000 H   0  0  0  0  0  0  0  0  0  0  0  0
    8.0073    0.8929    0.0000 H   0  0  0  0  0  0  0  0  0  0  0  0
    5.0540    0.8929    0.0000 H   0  0  0  0  0  0  0  0  0  0  0  0
    5.4526    0.2026    0.0000 H   0  0  0  0  0  0  0  0  0  0  0  0
    6.7427   -1.2974    0.0000 H   0  0  0  0  0  0  0  0  0  0  0  0
    7.1412   -0.6071    0.0000 H   0  0  0  0  0  0  0  0  0  0  0  0
    5.4526   -0.6322    0.0000 H   0  0  0  0  0  0  0  0  0  0  0  0
    5.0540   -1.3224    0.0000 H   0  0  0  0  0  0  0  0  0  0  0  0
    7.0400   -3.0548    0.0000 H   0  0  0  0  0  0  0  0  0  0  0  0
    6.7836   -2.2656    0.0000 H   0  0  0  0  0  0  0  0  0  0  0  0
    6.0998   -4.3702    0.0000 H   0  0  0  0  0  0  0  0  0  0  0  0
    6.7711   -3.8825    0.0000 H   0  0  0  0  0  0  0  0  0  0  0  0
    7.9336    3.4752    0.0000 H   0  0  0  0  0  0  0  0  0  0  0  0
    5.1277    3.4752    0.0000 H   0  0  0  0  0  0  0  0  0  0  0  0
    7.9336    5.0952    0.0000 H   0  0  0  0  0  0  0  0  0  0  0  0
    5.1277    5.0952    0.0000 H   0  0  0  0  0  0  0  0  0  0  0  0
    3.3301   -3.8917    0.0000 H   0  0  0  0  0  0  0  0  0  0  0  0
    5.6002   -5.5410    0.0000 H   0  0  0  0  0  0  0  0  0  0  0  0
    4.6480   -6.8516    0.0000 H   0  0  0  0  0  0  0  0  0  0  0  0
    3.0368   -6.6823    0.0000 H   0  0  0  0  0  0  0  0  0  0  0  0
  1 23  1  0  0  0  0
  2 26  1  0  0  0  0
  3 17  2  0  0  0  0
  4 10  1  0  0  0  0
  4 11  1  0  0  0  0
  4 12  1  0  0  0  0
  5 13  1  0  0  0  0
  5 15  1  0  0  0  0
  5 17  1  0  0  0  0
  6 16  1  0  0  0  0
  6 17  1  0  0  0  0
  6 20  1  0  0  0  0
  7  8  1  0  0  0  0
  7  9  1  0  0  0  0
  7 14  1  0  0  0  0
  7 29  1  0  0  0  0
  8 10  1  0  0  0  0
  8 30  1  0  0  0  0
  8 31  1  0  0  0  0
  9 11  1  0  0  0  0
  9 32  1  0  0  0  0
  9 33  1  0  0  0  0
 10 34  1  0  0  0  0
 10 35  1  0  0  0  0
 11 36  1  0  0  0  0
 11 37  1  0  0  0  0
 12 13  1  0  0  0  0
 12 38  1  0  0  0  0
 12 39  1  0  0  0  0
 13 40  1  0  0  0  0
 13 41  1  0  0  0  0
 14 18  2  0  0  0  0
 14 19  1  0  0  0  0
 15 16  1  0  0  0  0
 15 42  1  0  0  0  0
 15 43  1  0  0  0  0
 16 44  1  0  0  0  0
 16 45  1  0  0  0  0
 18 21  1  0  0  0  0
 18 46  1  0  0  0  0
 19 22  2  0  0  0  0
 19 47  1  0  0  0  0
 20 24  2  0  0  0  0
 20 25  1  0  0  0  0
 21 23  2  0  0  0  0
 21 48  1  0  0  0  0
 22 23  1  0  0  0  0
 22 49  1  0  0  0  0
 24 26  1  0  0  0  0
 24 50  1  0  0  0  0
 25 27  2  0  0  0  0
 25 51  1  0  0  0  0
 26 28  2  0  0  0  0
 27 28  1  0  0  0  0
 27 52  1  0  0  0  0
 28 53  1  0  0  0  0
M  END
> <PUBCHEM_COMPOUND_CID>
45268345

> <PUBCHEM_COMPOUND_CANONICALIZED>
1

> <PUBCHEM_CACTVS_COMPLEXITY>
518

> <PUBCHEM_CACTVS_HBOND_ACCEPTOR>
2

> <PUBCHEM_CACTVS_HBOND_DONOR>
0

> <PUBCHEM_CACTVS_ROTATABLE_BOND>
5

> <PUBCHEM_CACTVS_SUBSKEYS>
AAADceB7IAAGAAAAAAAAAAAAAAAAAWAAAAA8YIAAAAAAAAABQAAAHgIAAAAADQrBGCQxwIMAAACIAiRCUACCAAAhBwAIiAAIZoiIYCLBk5GUIAhohgLIyCcQgMAOhAAAAAIAAAAIAAAABAAAAAAAAAAAAA==

> <PUBCHEM_IUPAC_OPENEYE_NAME>
1-(3-chlorophenyl)-3-[2-[4-(4-chlorophenyl)-1-piperidyl]ethyl]imidazolidin-2-one

> <PUBCHEM_IUPAC_CAS_NAME>
1-(3-chlorophenyl)-3-[2-[4-(4-chlorophenyl)-1-piperidinyl]ethyl]-2-imidazolidinone

> <PUBCHEM_IUPAC_NAME_MARKUP>
1-(3-chlorophenyl)-3-[2-[4-(4-chlorophenyl)piperidin-1-yl]ethyl]imidazolidin-2-one

> <PUBCHEM_IUPAC_NAME>
1-(3-chlorophenyl)-3-[2-[4-(4-chlorophenyl)piperidin-1-yl]ethyl]imidazolidin-2-one

> <PUBCHEM_IUPAC_SYSTEMATIC_NAME>
1-(3-chlorophenyl)-3-[2-[4-(4-chlorophenyl)piperidin-1-yl]ethyl]imidazolidin-2-one

> <PUBCHEM_IUPAC_TRADITIONAL_NAME>
1-(3-chlorophenyl)-3-[2-[4-(4-chlorophenyl)piperidino]ethyl]-2-imidazolidinone

> <PUBCHEM_IUPAC_INCHI>
InChI=1S/C22H25Cl2N3O/c23-19-6-4-17(5-7-19)18-8-10-25(11-9-18)12-13-26-14-15-27(22(26)28)21-3-1-2-20(24)16-21/h1-7,16,18H,8-15H2

> <PUBCHEM_IUPAC_INCHIKEY>
NCDNWTYTZTXJIU-UHFFFAOYSA-N

> <PUBCHEM_XLOGP3_AA>
4.6

> <PUBCHEM_EXACT_MASS>
417.1374678

> <PUBCHEM_MOLECULAR_FORMULA>
C22H25Cl2N3O

> <PUBCHEM_MOLECULAR_WEIGHT>
418.4

> <PUBCHEM_OPENEYE_CAN_SMILES>
C1CN(CCC1C2=CC=C(C=C2)Cl)CCN3CCN(C3=O)C4=CC(=CC=C4)Cl

> <PUBCHEM_OPENEYE_ISO_SMILES>
C1CN(CCC1C2=CC=C(C=C2)Cl)CCN3CCN(C3=O)C4=CC(=CC=C4)Cl

> <PUBCHEM_CACTVS_TPSA>
26.8

> <PUBCHEM_MONOISOTOPIC_WEIGHT>
417.1374678

> <PUBCHEM_TOTAL_CHARGE>
0

> <PUBCHEM_HEAVY_ATOM_COUNT>
28

> <PUBCHEM_ATOM_DEF_STEREO_COUNT>
0

> <PUBCHEM_ATOM_UDEF_STEREO_COUNT>
0

> <PUBCHEM_BOND_DEF_STEREO_COUNT>
0

> <PUBCHEM_BOND_UDEF_STEREO_COUNT>
0

> <PUBCHEM_ISOTOPIC_ATOM_COUNT>
0

> <PUBCHEM_COMPONENT_COUNT>
1

> <PUBCHEM_CACTVS_TAUTO_COUNT>
-1

> <PUBCHEM_COORDINATE_TYPE>
1
5
255

> <PUBCHEM_BONDANNOTATIONS>
14  18  8
14  19  8
18  21  8
19  22  8
20  24  8
20  25  8
21  23  8
22  23  8
24  26  8
25  27  8
26  28  8
27  28  8

$$$$
