46850462
  -OEChem-09292322332D

 59 62  0     1  0  0  0  0  0999 V2000
    3.9329    2.7005    0.0000 O   0  0  0  0  0  0  0  0  0  0  0  0
    6.9249    0.5224    0.0000 N   0  0  3  0  0  0  0  0  0  0  0  0
    3.6721   -0.6903    0.0000 N   0  0  0  0  0  0  0  0  0  0  0  0
    5.3860    0.0224    0.0000 C   0  0  1  0  0  0  0  0  0  0  0  0
    5.3860    1.0224    0.0000 C   0  0  2  0  0  0  0  0  0  0  0  0
    4.3778    0.0182    0.0000 C   0  0  2  0  0  0  0  0  0  0  0  0
    4.3778    1.0265    0.0000 C   0  0  2  0  0  0  0  0  0  0  0  0
    6.3371   -0.2866    0.0000 C   0  0  2  0  0  0  0  0  0  0  0  0
    6.3371    1.3314    0.0000 C   0  0  0  0  0  0  0  0  0  0  0  0
    3.6721    1.7351    0.0000 C   0  0  0  0  0  0  0  0  0  0  0  0
    6.6461   -1.2377    0.0000 C   0  0  0  0  0  0  0  0  0  0  0  0
    7.9249    0.5224    0.0000 C   0  0  0  0  0  0  0  0  0  0  0  0
    2.7056   -0.4335    0.0000 C   0  0  0  0  0  0  0  0  0  0  0  0
    3.9329   -1.6557    0.0000 C   0  0  0  0  0  0  0  0  0  0  0  0
    7.6243   -1.4456    0.0000 C   0  0  0  0  0  0  0  0  0  0  0  0
    5.9770   -1.9808    0.0000 C   0  0  0  0  0  0  0  0  0  0  0  0
    8.4249    1.3884    0.0000 C   0  0  0  0  0  0  0  0  0  0  0  0
    2.0000   -1.1420    0.0000 C   0  0  0  0  0  0  0  0  0  0  0  0
    3.2273   -2.3643    0.0000 C   0  0  0  0  0  0  0  0  0  0  0  0
    7.9333   -2.3966    0.0000 C   0  0  0  0  0  0  0  0  0  0  0  0
    6.2860   -2.9319    0.0000 C   0  0  0  0  0  0  0  0  0  0  0  0
    7.9249    2.2544    0.0000 C   0  0  0  0  0  0  0  0  0  0  0  0
    9.4249    1.3884    0.0000 C   0  0  0  0  0  0  0  0  0  0  0  0
    7.2642   -3.1398    0.0000 C   0  0  0  0  0  0  0  0  0  0  0  0
    8.4249    3.1205    0.0000 C   0  0  0  0  0  0  0  0  0  0  0  0
    9.9249    2.2544    0.0000 C   0  0  0  0  0  0  0  0  0  0  0  0
    9.4249    3.1205    0.0000 C   0  0  0  0  0  0  0  0  0  0  0  0
    5.2548   -0.8174    0.0000 H   0  0  0  0  0  0  0  0  0  0  0  0
    5.2548    1.8622    0.0000 H   0  0  0  0  0  0  0  0  0  0  0  0
    4.6168   -0.5538    0.0000 H   0  0  0  0  0  0  0  0  0  0  0  0
    4.6168    1.5986    0.0000 H   0  0  0  0  0  0  0  0  0  0  0  0
    6.9495   -0.3836    0.0000 H   0  0  0  0  0  0  0  0  0  0  0  0
    6.8740    1.6414    0.0000 H   0  0  0  0  0  0  0  0  0  0  0  0
    6.0849    1.8978    0.0000 H   0  0  0  0  0  0  0  0  0  0  0  0
    3.1107    1.9983    0.0000 H   0  0  0  0  0  0  0  0  0  0  0  0
    3.3154    1.2280    0.0000 H   0  0  0  0  0  0  0  0  0  0  0  0
    7.8172   -0.0882    0.0000 H   0  0  0  0  0  0  0  0  0  0  0  0
    8.5075    0.3103    0.0000 H   0  0  0  0  0  0  0  0  0  0  0  0
    2.9665    0.1290    0.0000 H   0  0  0  0  0  0  0  0  0  0  0  0
    2.1970   -0.0789    0.0000 H   0  0  0  0  0  0  0  0  0  0  0  0
    4.2896   -2.1628    0.0000 H   0  0  0  0  0  0  0  0  0  0  0  0
    4.4943   -1.3925    0.0000 H   0  0  0  0  0  0  0  0  0  0  0  0
    3.4954    3.1398    0.0000 H   0  0  0  0  0  0  0  0  0  0  0  0
    8.0391   -0.9848    0.0000 H   0  0  0  0  0  0  0  0  0  0  0  0
    5.3705   -1.8519    0.0000 H   0  0  0  0  0  0  0  0  0  0  0  0
    1.5607   -0.7045    0.0000 H   0  0  0  0  0  0  0  0  0  0  0  0
    1.5625   -1.5813    0.0000 H   0  0  0  0  0  0  0  0  0  0  0  0
    2.4393   -1.5795    0.0000 H   0  0  0  0  0  0  0  0  0  0  0  0
    2.7880   -1.9268    0.0000 H   0  0  0  0  0  0  0  0  0  0  0  0
    2.7898   -2.8036    0.0000 H   0  0  0  0  0  0  0  0  0  0  0  0
    3.6666   -2.8018    0.0000 H   0  0  0  0  0  0  0  0  0  0  0  0
    8.5397   -2.5256    0.0000 H   0  0  0  0  0  0  0  0  0  0  0  0
    5.8711   -3.3926    0.0000 H   0  0  0  0  0  0  0  0  0  0  0  0
    7.3049    2.2544    0.0000 H   0  0  0  0  0  0  0  0  0  0  0  0
    9.7349    0.8515    0.0000 H   0  0  0  0  0  0  0  0  0  0  0  0
    7.4557   -3.7294    0.0000 H   0  0  0  0  0  0  0  0  0  0  0  0
    8.1149    3.6574    0.0000 H   0  0  0  0  0  0  0  0  0  0  0  0
   10.5449    2.2544    0.0000 H   0  0  0  0  0  0  0  0  0  0  0  0
    9.7349    3.6574    0.0000 H   0  0  0  0  0  0  0  0  0  0  0  0
  1 10  1  0  0  0  0
  1 43  1  0  0  0  0
  2  8  1  0  0  0  0
  2  9  1  0  0  0  0
  2 12  1  0  0  0  0
  6  3  1  1  0  0  0
  3 13  1  0  0  0  0
  3 14  1  0  0  0  0
  4  5  1  0  0  0  0
  4  6  1  0  0  0  0
  4  8  1  0  0  0  0
  4 28  1  1  0  0  0
  5  7  1  0  0  0  0
  5  9  1  0  0  0  0
  5 29  1  1  0  0  0
  6  7  1  0  0  0  0
  6 30  1  0  0  0  0
  7 10  1  6  0  0  0
  7 31  1  0  0  0  0
  8 11  1  1  0  0  0
  8 32  1  0  0  0  0
  9 33  1  0  0  0  0
  9 34  1  0  0  0  0
 10 35  1  0  0  0  0
 10 36  1  0  0  0  0
 11 15  2  0  0  0  0
 11 16  1  0  0  0  0
 12 17  1  0  0  0  0
 12 37  1  0  0  0  0
 12 38  1  0  0  0  0
 13 18  1  0  0  0  0
 13 39  1  0  0  0  0
 13 40  1  0  0  0  0
 14 19  1  0  0  0  0
 14 41  1  0  0  0  0
 14 42  1  0  0  0  0
 15 20  1  0  0  0  0
 15 44  1  0  0  0  0
 16 21  2  0  0  0  0
 16 45  1  0  0  0  0
 17 22  2  0  0  0  0
 17 23  1  0  0  0  0
 18 46  1  0  0  0  0
 18 47  1  0  0  0  0
 18 48  1  0  0  0  0
 19 49  1  0  0  0  0
 19 50  1  0  0  0  0
 19 51  1  0  0  0  0
 20 24  2  0  0  0  0
 20 52  1  0  0  0  0
 21 24  1  0  0  0  0
 21 53  1  0  0  0  0
 22 25  1  0  0  0  0
 22 54  1  0  0  0  0
 23 26  2  0  0  0  0
 23 55  1  0  0  0  0
 24 56  1  0  0  0  0
 25 27  2  0  0  0  0
 25 57  1  0  0  0  0
 26 27  1  0  0  0  0
 26 58  1  0  0  0  0
 27 59  1  0  0  0  0
M  END
> <PUBCHEM_COMPOUND_CID>
46850462

> <PUBCHEM_COMPOUND_CANONICALIZED>
1

> <PUBCHEM_CACTVS_COMPLEXITY>
453

> <PUBCHEM_CACTVS_HBOND_ACCEPTOR>
3

> <PUBCHEM_CACTVS_HBOND_DONOR>
1

> <PUBCHEM_CACTVS_ROTATABLE_BOND>
7

> <PUBCHEM_CACTVS_SUBSKEYS>
AAADcfB7IAAAAAAAAAAAAAAAAABgAWAAAAAwYAAABYAAAAABQAAAHgAACAAADSjhmAYyAIMAAgCAAiBCAACCAAAgAAAIiAAIBIgIMCKA0RGEYAhmgACIiAew0OMOgAAAAAAAAAAAAAAAAAAAAAAAAAAAAA==

> <PUBCHEM_IUPAC_OPENEYE_NAME>
[(1S,2R,5R,6R,7R)-3-benzyl-7-(diethylamino)-2-phenyl-3-azabicyclo[3.2.0]heptan-6-yl]methanol

> <PUBCHEM_IUPAC_CAS_NAME>
[(1S,2R,5R,6R,7R)-7-(diethylamino)-2-phenyl-3-(phenylmethyl)-3-azabicyclo[3.2.0]heptan-6-yl]methanol

> <PUBCHEM_IUPAC_NAME_MARKUP>
[(1<I>S</I>,2<I>R</I>,5<I>R</I>,6<I>R</I>,7<I>R</I>)-3-benzyl-7-(diethylamino)-2-phenyl-3-azabicyclo[3.2.0]heptan-6-yl]methanol

> <PUBCHEM_IUPAC_NAME>
[(1S,2R,5R,6R,7R)-3-benzyl-7-(diethylamino)-2-phenyl-3-azabicyclo[3.2.0]heptan-6-yl]methanol

> <PUBCHEM_IUPAC_SYSTEMATIC_NAME>
[(1S,2R,5R,6R,7R)-7-(diethylamino)-2-phenyl-3-(phenylmethyl)-3-azabicyclo[3.2.0]heptan-6-yl]methanol

> <PUBCHEM_IUPAC_TRADITIONAL_NAME>
[(1S,2R,5R,6R,7R)-3-benzyl-7-(diethylamino)-2-phenyl-3-azabicyclo[3.2.0]heptan-6-yl]methanol

> <PUBCHEM_IUPAC_INCHI>
InChI=1S/C24H32N2O/c1-3-25(4-2)24-21(17-27)20-16-26(15-18-11-7-5-8-12-18)23(22(20)24)19-13-9-6-10-14-19/h5-14,20-24,27H,3-4,15-17H2,1-2H3/t20-,21+,22+,23-,24-/m0/s1

> <PUBCHEM_IUPAC_INCHIKEY>
SEVLDDAIFKZMCD-JTKSJCOOSA-N

> <PUBCHEM_XLOGP3_AA>
3.8

> <PUBCHEM_EXACT_MASS>
364.251463648

> <PUBCHEM_MOLECULAR_FORMULA>
C24H32N2O

> <PUBCHEM_MOLECULAR_WEIGHT>
364.5

> <PUBCHEM_OPENEYE_CAN_SMILES>
CCN(CC)C1C(C2C1C(N(C2)CC3=CC=CC=C3)C4=CC=CC=C4)CO

> <PUBCHEM_OPENEYE_ISO_SMILES>
CCN(CC)[C@H]1[C@@H]([C@H]2[C@@H]1[C@@H](N(C2)CC3=CC=CC=C3)C4=CC=CC=C4)CO

> <PUBCHEM_CACTVS_TPSA>
26.7

> <PUBCHEM_MONOISOTOPIC_WEIGHT>
364.251463648

> <PUBCHEM_TOTAL_CHARGE>
0

> <PUBCHEM_HEAVY_ATOM_COUNT>
27

> <PUBCHEM_ATOM_DEF_STEREO_COUNT>
5

> <PUBCHEM_ATOM_UDEF_STEREO_COUNT>
0

> <PUBCHEM_BOND_DEF_STEREO_COUNT>
0

> <PUBCHEM_BOND_UDEF_STEREO_COUNT>
0

> <PUBCHEM_ISOTOPIC_ATOM_COUNT>
0

> <PUBCHEM_COMPONENT_COUNT>
1

> <PUBCHEM_CACTVS_TAUTO_COUNT>
-1

> <PUBCHEM_COORDINATE_TYPE>
1
5
255

> <PUBCHEM_BONDANNOTATIONS>
11  15  8
11  16  8
15  20  8
16  21  8
17  22  8
17  23  8
20  24  8
21  24  8
22  25  8
23  26  8
25  27  8
26  27  8
6  3  5
4  28  5
5  29  5
7  10  6
8  11  5

$$$$
