118736402
  -OEChem-09292322092D

 94 99  0     1  0  0  0  0  0999 V2000
   12.7763   -5.1944    0.0000 F   0  0  0  0  0  0  0  0  0  0  0  0
    9.9622    3.3543    0.0000 O   0  0  0  0  0  0  0  0  0  0  0  0
   13.4835   -1.8033    0.0000 O   0  0  0  0  0  0  0  0  0  0  0  0
   10.2339   -0.2410    0.0000 O   0  0  0  0  0  0  0  0  0  0  0  0
   14.8386   -1.9404    0.0000 O   0  0  0  0  0  0  0  0  0  0  0  0
    6.9654    4.0017    0.0000 N   0  0  3  0  0  0  0  0  0  0  0  0
    4.5124    2.8842    0.0000 N   0  0  0  0  0  0  0  0  0  0  0  0
    9.6086    1.6587    0.0000 N   0  0  0  0  0  0  0  0  0  0  0  0
   13.8370   -0.1077    0.0000 N   0  0  0  0  0  0  0  0  0  0  0  0
   11.8792    0.3006    0.0000 N   0  0  0  0  0  0  0  0  0  0  0  0
   14.5901    2.3679    0.0000 N   0  0  0  0  0  0  0  0  0  0  0  0
   16.3353   -1.0686    0.0000 N   0  0  0  0  0  0  0  0  0  0  0  0
    6.2962    3.2585    0.0000 C   0  0  1  0  0  0  0  0  0  0  0  0
    6.6028    2.2630    0.0000 C   0  0  0  0  0  0  0  0  0  0  0  0
    8.3170    2.8127    0.0000 C   0  0  2  0  0  0  0  0  0  0  0  0
    7.9875    3.8008    0.0000 C   0  0  0  0  0  0  0  0  0  0  0  0
    7.6200    2.0386    0.0000 C   0  0  0  0  0  0  0  0  0  0  0  0
    5.3181    3.4664    0.0000 C   0  0  0  0  0  0  0  0  0  0  0  0
    6.6564    4.9527    0.0000 C   0  0  0  0  0  0  0  0  0  0  0  0
    5.0091    4.4175    0.0000 C   0  0  0  0  0  0  0  0  0  0  0  0
    5.6782    5.1607    0.0000 C   0  0  0  0  0  0  0  0  0  0  0  0
    4.0150    4.4149    0.0000 C   0  0  0  0  0  0  0  0  0  0  0  0
    9.2959    2.6086    0.0000 C   0  0  0  0  0  0  0  0  0  0  0  0
    3.7086    3.4692    0.0000 C   0  0  0  0  0  0  0  0  0  0  0  0
    3.3334    5.1944    0.0000 C   0  0  0  0  0  0  0  0  0  0  0  0
   10.5875    1.4546    0.0000 C   0  0  1  0  0  0  0  0  0  0  0  0
   14.8320   -0.2084    0.0000 C   0  0  1  0  0  0  0  0  0  0  0  0
   14.4894    1.3730    0.0000 C   0  0  1  0  0  0  0  0  0  0  0  0
    2.6994    3.2375    0.0000 C   0  0  0  0  0  0  0  0  0  0  0  0
   15.2352    0.7067    0.0000 C   0  0  0  0  0  0  0  0  0  0  0  0
   13.6254    0.8696    0.0000 C   0  0  0  0  0  0  0  0  0  0  0  0
   11.2538    2.2003    0.0000 C   0  0  0  0  0  0  0  0  0  0  0  0
    2.3191    4.9861    0.0000 C   0  0  0  0  0  0  0  0  0  0  0  0
   12.1918   -0.6493    0.0000 C   0  0  2  0  0  0  0  0  0  0  0  0
   13.1708   -0.8534    0.0000 C   0  0  0  0  0  0  0  0  0  0  0  0
    2.0000    4.0010    0.0000 C   0  0  0  0  0  0  0  0  0  0  0  0
   10.9002    0.5047    0.0000 C   0  0  0  0  0  0  0  0  0  0  0  0
   15.3353   -1.0725    0.0000 C   0  0  0  0  0  0  0  0  0  0  0  0
   10.9411    3.1502    0.0000 C   0  0  0  0  0  0  0  0  0  0  0  0
   11.5256   -1.3950    0.0000 C   0  0  0  0  0  0  0  0  0  0  0  0
   11.6074    3.8959    0.0000 C   0  0  0  0  0  0  0  0  0  0  0  0
   11.8383   -2.3449    0.0000 C   0  0  0  0  0  0  0  0  0  0  0  0
   11.2947    4.8457    0.0000 C   0  0  0  0  0  0  0  0  0  0  0  0
   11.1720   -3.0906    0.0000 C   0  0  0  0  0  0  0  0  0  0  0  0
   12.8172   -2.5490    0.0000 C   0  0  0  0  0  0  0  0  0  0  0  0
   11.4847   -4.0404    0.0000 C   0  0  0  0  0  0  0  0  0  0  0  0
   13.1299   -3.4988    0.0000 C   0  0  0  0  0  0  0  0  0  0  0  0
   12.4636   -4.2446    0.0000 C   0  0  0  0  0  0  0  0  0  0  0  0
    5.7226    2.6313    0.0000 H   0  0  0  0  0  0  0  0  0  0  0  0
    5.9878    2.1847    0.0000 H   0  0  0  0  0  0  0  0  0  0  0  0
    6.5748    1.6437    0.0000 H   0  0  0  0  0  0  0  0  0  0  0  0
    8.7292    3.2759    0.0000 H   0  0  0  0  0  0  0  0  0  0  0  0
    8.6005    3.8934    0.0000 H   0  0  0  0  0  0  0  0  0  0  0  0
    8.0011    4.4207    0.0000 H   0  0  0  0  0  0  0  0  0  0  0  0
    7.3848    1.4650    0.0000 H   0  0  0  0  0  0  0  0  0  0  0  0
    8.1449    1.7087    0.0000 H   0  0  0  0  0  0  0  0  0  0  0  0
    7.2703    5.0390    0.0000 H   0  0  0  0  0  0  0  0  0  0  0  0
    6.6780    5.5724    0.0000 H   0  0  0  0  0  0  0  0  0  0  0  0
    5.9105    5.7355    0.0000 H   0  0  0  0  0  0  0  0  0  0  0  0
    5.1524    5.4892    0.0000 H   0  0  0  0  0  0  0  0  0  0  0  0
    4.5113    2.2642    0.0000 H   0  0  0  0  0  0  0  0  0  0  0  0
    9.1955    1.1964    0.0000 H   0  0  0  0  0  0  0  0  0  0  0  0
    3.5313    5.7820    0.0000 H   0  0  0  0  0  0  0  0  0  0  0  0
   10.3937    2.0435    0.0000 H   0  0  0  0  0  0  0  0  0  0  0  0
   14.4963   -0.7297    0.0000 H   0  0  0  0  0  0  0  0  0  0  0  0
   15.0674    1.5974    0.0000 H   0  0  0  0  0  0  0  0  0  0  0  0
   15.7733    0.3988    0.0000 H   0  0  0  0  0  0  0  0  0  0  0  0
   15.5977    1.2097    0.0000 H   0  0  0  0  0  0  0  0  0  0  0  0
    2.5152    2.6455    0.0000 H   0  0  0  0  0  0  0  0  0  0  0  0
   13.3710    1.4351    0.0000 H   0  0  0  0  0  0  0  0  0  0  0  0
   13.0364    0.6758    0.0000 H   0  0  0  0  0  0  0  0  0  0  0  0
   11.6374    1.7132    0.0000 H   0  0  0  0  0  0  0  0  0  0  0  0
   11.8001    2.4935    0.0000 H   0  0  0  0  0  0  0  0  0  0  0  0
   12.6049   -0.1869    0.0000 H   0  0  0  0  0  0  0  0  0  0  0  0
    1.9056    5.4481    0.0000 H   0  0  0  0  0  0  0  0  0  0  0  0
    1.3942    3.8693    0.0000 H   0  0  0  0  0  0  0  0  0  0  0  0
   12.2922    0.7629    0.0000 H   0  0  0  0  0  0  0  0  0  0  0  0
   10.5575    3.6372    0.0000 H   0  0  0  0  0  0  0  0  0  0  0  0
   10.3948    2.8570    0.0000 H   0  0  0  0  0  0  0  0  0  0  0  0
   14.0871    2.7304    0.0000 H   0  0  0  0  0  0  0  0  0  0  0  0
   15.1556    2.6223    0.0000 H   0  0  0  0  0  0  0  0  0  0  0  0
   11.1420   -0.9079    0.0000 H   0  0  0  0  0  0  0  0  0  0  0  0
   10.9793   -1.6882    0.0000 H   0  0  0  0  0  0  0  0  0  0  0  0
   11.9910    3.4088    0.0000 H   0  0  0  0  0  0  0  0  0  0  0  0
   12.1537    4.1890    0.0000 H   0  0  0  0  0  0  0  0  0  0  0  0
   16.6473   -1.6044    0.0000 H   0  0  0  0  0  0  0  0  0  0  0  0
   16.6432   -0.5305    0.0000 H   0  0  0  0  0  0  0  0  0  0  0  0
   11.8836    5.0396    0.0000 H   0  0  0  0  0  0  0  0  0  0  0  0
   11.1008    5.4346    0.0000 H   0  0  0  0  0  0  0  0  0  0  0  0
   10.7058    4.6519    0.0000 H   0  0  0  0  0  0  0  0  0  0  0  0
   10.5650   -2.9640    0.0000 H   0  0  0  0  0  0  0  0  0  0  0  0
   13.2303   -2.0866    0.0000 H   0  0  0  0  0  0  0  0  0  0  0  0
   11.0716   -4.5028    0.0000 H   0  0  0  0  0  0  0  0  0  0  0  0
   13.7368   -3.6254    0.0000 H   0  0  0  0  0  0  0  0  0  0  0  0
  1 48  1  0  0  0  0
  2 23  2  0  0  0  0
  3 35  2  0  0  0  0
  4 37  2  0  0  0  0
  5 38  2  0  0  0  0
  6 13  1  0  0  0  0
  6 16  1  0  0  0  0
  6 19  1  0  0  0  0
  7 18  1  0  0  0  0
  7 24  1  0  0  0  0
  7 61  1  0  0  0  0
  8 23  1  0  0  0  0
 26  8  1  1  0  0  0
  8 62  1  0  0  0  0
  9 27  1  0  0  0  0
  9 31  1  0  0  0  0
  9 35  1  0  0  0  0
 34 10  1  6  0  0  0
 10 37  1  0  0  0  0
 10 77  1  0  0  0  0
 28 11  1  1  0  0  0
 11 80  1  0  0  0  0
 11 81  1  0  0  0  0
 12 38  1  0  0  0  0
 12 86  1  0  0  0  0
 12 87  1  0  0  0  0
 13 14  1  0  0  0  0
 13 18  1  0  0  0  0
 13 49  1  6  0  0  0
 14 17  1  0  0  0  0
 14 50  1  0  0  0  0
 14 51  1  0  0  0  0
 15 16  1  0  0  0  0
 15 17  1  0  0  0  0
 15 23  1  1  0  0  0
 15 52  1  0  0  0  0
 16 53  1  0  0  0  0
 16 54  1  0  0  0  0
 17 55  1  0  0  0  0
 17 56  1  0  0  0  0
 18 20  2  0  0  0  0
 19 21  1  0  0  0  0
 19 57  1  0  0  0  0
 19 58  1  0  0  0  0
 20 21  1  0  0  0  0
 20 22  1  0  0  0  0
 21 59  1  0  0  0  0
 21 60  1  0  0  0  0
 22 24  1  0  0  0  0
 22 25  2  0  0  0  0
 24 29  2  0  0  0  0
 25 33  1  0  0  0  0
 25 63  1  0  0  0  0
 26 32  1  0  0  0  0
 26 37  1  0  0  0  0
 26 64  1  0  0  0  0
 27 30  1  0  0  0  0
 27 38  1  1  0  0  0
 27 65  1  0  0  0  0
 28 30  1  0  0  0  0
 28 31  1  0  0  0  0
 28 66  1  0  0  0  0
 29 36  1  0  0  0  0
 29 69  1  0  0  0  0
 30 67  1  0  0  0  0
 30 68  1  0  0  0  0
 31 70  1  0  0  0  0
 31 71  1  0  0  0  0
 32 39  1  0  0  0  0
 32 72  1  0  0  0  0
 32 73  1  0  0  0  0
 33 36  2  0  0  0  0
 33 75  1  0  0  0  0
 34 35  1  0  0  0  0
 34 40  1  0  0  0  0
 34 74  1  0  0  0  0
 36 76  1  0  0  0  0
 39 41  1  0  0  0  0
 39 78  1  0  0  0  0
 39 79  1  0  0  0  0
 40 42  1  0  0  0  0
 40 82  1  0  0  0  0
 40 83  1  0  0  0  0
 41 43  1  0  0  0  0
 41 84  1  0  0  0  0
 41 85  1  0  0  0  0
 42 44  2  0  0  0  0
 42 45  1  0  0  0  0
 43 88  1  0  0  0  0
 43 89  1  0  0  0  0
 43 90  1  0  0  0  0
 44 46  1  0  0  0  0
 44 91  1  0  0  0  0
 45 47  2  0  0  0  0
 45 92  1  0  0  0  0
 46 48  2  0  0  0  0
 46 93  1  0  0  0  0
 47 48  1  0  0  0  0
 47 94  1  0  0  0  0
M  END
> <PUBCHEM_COMPOUND_CID>
118736402

> <PUBCHEM_COMPOUND_CANONICALIZED>
1

> <PUBCHEM_CACTVS_COMPLEXITY>
1170

> <PUBCHEM_CACTVS_HBOND_ACCEPTOR>
7

> <PUBCHEM_CACTVS_HBOND_DONOR>
5

> <PUBCHEM_CACTVS_ROTATABLE_BOND>
11

> <PUBCHEM_CACTVS_SUBSKEYS>
AAADcfB/uQAAAAAAAAAAAAAAAAAAAWLAAAA8eIEAAAAAAFix9AAAHwAQAAAADSjBngwywPPJkACoAyVyVACCgCAhAiAImaG4ZJgIYPrA0bGUIAhglgDIyAccicCegAAAAAACAAAAAAAAAAQAAAAAAAAAAA==

> <PUBCHEM_IUPAC_OPENEYE_NAME>
(3S,12bS)-N-[(1S)-1-[[(1S)-2-[(2S,4S)-4-amino-2-carbamoyl-pyrrolidin-1-yl]-1-[(4-fluorophenyl)methyl]-2-oxo-ethyl]carbamoyl]pentyl]-1,2,3,4,6,7,12,12b-octahydroindolo[2,3-a]quinolizine-3-carboxamide

> <PUBCHEM_IUPAC_CAS_NAME>
(3S,12bS)-N-[(2S)-1-[[(2S)-1-[(2S,4S)-4-amino-2-carbamoyl-1-pyrrolidinyl]-3-(4-fluorophenyl)-1-oxopropan-2-yl]amino]-1-oxohexan-2-yl]-1,2,3,4,6,7,12,12b-octahydroindolo[2,3-a]quinolizine-3-carboxamide

> <PUBCHEM_IUPAC_NAME_MARKUP>
(3<I>S</I>,12<I>b</I><I>S</I>)-<I>N</I>-[(2<I>S</I>)-1-[[(2<I>S</I>)-1-[(2<I>S</I>,4<I>S</I>)-4-amino-2-carbamoylpyrrolidin-1-yl]-3-(4-fluorophenyl)-1-oxopropan-2-yl]amino]-1-oxohexan-2-yl]-1,2,3,4,6,7,12,12<I>b</I>-octahydroindolo[2,3-a]quinolizine-3-carboxamide

> <PUBCHEM_IUPAC_NAME>
(3S,12bS)-N-[(2S)-1-[[(2S)-1-[(2S,4S)-4-amino-2-carbamoylpyrrolidin-1-yl]-3-(4-fluorophenyl)-1-oxopropan-2-yl]amino]-1-oxohexan-2-yl]-1,2,3,4,6,7,12,12b-octahydroindolo[2,3-a]quinolizine-3-carboxamide

> <PUBCHEM_IUPAC_SYSTEMATIC_NAME>
(3S,12bS)-N-[(2S)-1-[[(2S)-1-[(2S,4S)-2-aminocarbonyl-4-azanyl-pyrrolidin-1-yl]-3-(4-fluorophenyl)-1-oxidanylidene-propan-2-yl]amino]-1-oxidanylidene-hexan-2-yl]-1,2,3,4,6,7,12,12b-octahydroindolo[2,3-a]quinolizine-3-carboxamide

> <PUBCHEM_IUPAC_TRADITIONAL_NAME>
(3S,12bS)-N-[(1S)-1-[[(1S)-2-[(2S,4S)-4-amino-2-carbamoyl-pyrrolidino]-1-(4-fluorobenzyl)-2-keto-ethyl]carbamoyl]pentyl]-1,2,3,4,6,7,12,12b-octahydropyrido[2,1-a]beta-carboline-3-carboxamide

> <PUBCHEM_IUPAC_INCHI>
InChI=1S/C36H46FN7O4/c1-2-3-7-28(41-34(46)22-11-14-30-32-26(15-16-43(30)19-22)25-6-4-5-8-27(25)40-32)35(47)42-29(17-21-9-12-23(37)13-10-21)36(48)44-20-24(38)18-31(44)33(39)45/h4-6,8-10,12-13,22,24,28-31,40H,2-3,7,11,14-20,38H2,1H3,(H2,39,45)(H,41,46)(H,42,47)/t22-,24-,28-,29-,30-,31-/m0/s1

> <PUBCHEM_IUPAC_INCHIKEY>
HNQHMECPKRTTRV-IEJKQUADSA-N

> <PUBCHEM_XLOGP3_AA>
2.8

> <PUBCHEM_EXACT_MASS>
659.35953114

> <PUBCHEM_MOLECULAR_FORMULA>
C36H46FN7O4

> <PUBCHEM_MOLECULAR_WEIGHT>
659.8

> <PUBCHEM_OPENEYE_CAN_SMILES>
CCCCC(C(=O)NC(CC1=CC=C(C=C1)F)C(=O)N2CC(CC2C(=O)N)N)NC(=O)C3CCC4C5=C(CCN4C3)C6=CC=CC=C6N5

> <PUBCHEM_OPENEYE_ISO_SMILES>
CCCC[C@@H](C(=O)N[C@@H](CC1=CC=C(C=C1)F)C(=O)N2C[C@H](C[C@H]2C(=O)N)N)NC(=O)[C@H]3CC[C@H]4C5=C(CCN4C3)C6=CC=CC=C6N5

> <PUBCHEM_CACTVS_TPSA>
167

> <PUBCHEM_MONOISOTOPIC_WEIGHT>
659.35953114

> <PUBCHEM_TOTAL_CHARGE>
0

> <PUBCHEM_HEAVY_ATOM_COUNT>
48

> <PUBCHEM_ATOM_DEF_STEREO_COUNT>
6

> <PUBCHEM_ATOM_UDEF_STEREO_COUNT>
0

> <PUBCHEM_BOND_DEF_STEREO_COUNT>
0

> <PUBCHEM_BOND_UDEF_STEREO_COUNT>
0

> <PUBCHEM_ISOTOPIC_ATOM_COUNT>
0

> <PUBCHEM_COMPONENT_COUNT>
1

> <PUBCHEM_CACTVS_TAUTO_COUNT>
-1

> <PUBCHEM_COORDINATE_TYPE>
1
5
255

> <PUBCHEM_BONDANNOTATIONS>
34  10  6
28  11  5
13  49  6
15  23  5
18  20  8
20  22  8
22  24  8
22  25  8
24  29  8
25  33  8
27  38  5
29  36  8
33  36  8
42  44  8
42  45  8
44  46  8
45  47  8
46  48  8
47  48  8
7  18  8
7  24  8
26  8  5

$$$$
