44382829
  -OEChem-09292322502D

 41 44  0     1  0  0  0  0  0999 V2000
    5.5981   -0.7758    0.0000 O   0  0  0  0  0  0  0  0  0  0  0  0
    2.8541    0.7795    0.0000 O   0  0  0  0  0  0  0  0  0  0  0  0
    6.2331    2.9534    0.0000 O   0  0  0  0  0  0  0  0  0  0  0  0
    3.7398   -1.8679    0.0000 N   0  0  3  0  0  0  0  0  0  0  0  0
    3.7481   -0.7829    0.0000 C   0  0  1  0  0  0  0  0  0  0  0  0
    4.6461   -0.2552    0.0000 C   0  0  1  0  0  0  0  0  0  0  0  0
    2.8460   -0.2621    0.0000 C   0  0  0  0  0  0  0  0  0  0  0  0
    4.6301    0.7863    0.0000 C   0  0  0  0  0  0  0  0  0  0  0  0
    4.6794   -2.4104    0.0000 C   0  0  0  0  0  0  0  0  0  0  0  0
    5.6148   -1.8607    0.0000 C   0  0  0  0  0  0  0  0  0  0  0  0
    2.8718   -2.3646    0.0000 C   0  0  0  0  0  0  0  0  0  0  0  0
    3.7641    1.2863    0.0000 C   0  0  0  0  0  0  0  0  0  0  0  0
    5.4961    1.2863    0.0000 C   0  0  0  0  0  0  0  0  0  0  0  0
    4.6301    2.7863    0.0000 C   0  0  0  0  0  0  0  0  0  0  0  0
    5.4961    2.2863    0.0000 C   0  0  0  0  0  0  0  0  0  0  0  0
    3.7641    2.2863    0.0000 C   0  0  0  0  0  0  0  0  0  0  0  0
    2.8680   -3.3645    0.0000 C   0  0  0  0  0  0  0  0  0  0  0  0
    4.8393    3.7582    0.0000 C   0  0  0  0  0  0  0  0  0  0  0  0
    5.8280    3.8612    0.0000 C   0  0  0  0  0  0  0  0  0  0  0  0
    2.0000   -3.8612    0.0000 C   0  0  0  0  0  0  0  0  0  0  0  0
    3.0104   -1.2051    0.0000 H   0  0  0  0  0  0  0  0  0  0  0  0
    5.3739    0.1839    0.0000 H   0  0  0  0  0  0  0  0  0  0  0  0
    2.2360   -0.1513    0.0000 H   0  0  0  0  0  0  0  0  0  0  0  0
    2.6325   -0.8442    0.0000 H   0  0  0  0  0  0  0  0  0  0  0  0
    4.2821   -2.8864    0.0000 H   0  0  0  0  0  0  0  0  0  0  0  0
    5.0803   -2.8833    0.0000 H   0  0  0  0  0  0  0  0  0  0  0  0
    5.8328   -2.4411    0.0000 H   0  0  0  0  0  0  0  0  0  0  0  0
    6.2240   -1.7452    0.0000 H   0  0  0  0  0  0  0  0  0  0  0  0
    2.6620   -1.7811    0.0000 H   0  0  0  0  0  0  0  0  0  0  0  0
    2.2608   -2.4699    0.0000 H   0  0  0  0  0  0  0  0  0  0  0  0
    6.0330    0.9763    0.0000 H   0  0  0  0  0  0  0  0  0  0  0  0
    3.2271    2.5963    0.0000 H   0  0  0  0  0  0  0  0  0  0  0  0
    3.0778   -3.9480    0.0000 H   0  0  0  0  0  0  0  0  0  0  0  0
    3.4789   -3.2592    0.0000 H   0  0  0  0  0  0  0  0  0  0  0  0
    4.8402    4.3782    0.0000 H   0  0  0  0  0  0  0  0  0  0  0  0
    4.2228    3.8242    0.0000 H   0  0  0  0  0  0  0  0  0  0  0  0
    6.4176    4.0530    0.0000 H   0  0  0  0  0  0  0  0  0  0  0  0
    5.6993    4.4677    0.0000 H   0  0  0  0  0  0  0  0  0  0  0  0
    1.6921   -3.3231    0.0000 H   0  0  0  0  0  0  0  0  0  0  0  0
    1.4619   -4.1691    0.0000 H   0  0  0  0  0  0  0  0  0  0  0  0
    2.3079   -4.3993    0.0000 H   0  0  0  0  0  0  0  0  0  0  0  0
  1  6  1  0  0  0  0
  1 10  1  0  0  0  0
  2  7  1  0  0  0  0
  2 12  1  0  0  0  0
  3 15  1  0  0  0  0
  3 19  1  0  0  0  0
  4  5  1  0  0  0  0
  4  9  1  0  0  0  0
  4 11  1  0  0  0  0
  5  6  1  0  0  0  0
  5  7  1  0  0  0  0
  5 21  1  1  0  0  0
  6  8  1  0  0  0  0
  6 22  1  6  0  0  0
  7 23  1  0  0  0  0
  7 24  1  0  0  0  0
  8 12  2  0  0  0  0
  8 13  1  0  0  0  0
  9 10  1  0  0  0  0
  9 25  1  0  0  0  0
  9 26  1  0  0  0  0
 10 27  1  0  0  0  0
 10 28  1  0  0  0  0
 11 17  1  0  0  0  0
 11 29  1  0  0  0  0
 11 30  1  0  0  0  0
 12 16  1  0  0  0  0
 13 15  2  0  0  0  0
 13 31  1  0  0  0  0
 14 15  1  0  0  0  0
 14 16  2  0  0  0  0
 14 18  1  0  0  0  0
 16 32  1  0  0  0  0
 17 20  1  0  0  0  0
 17 33  1  0  0  0  0
 17 34  1  0  0  0  0
 18 19  1  0  0  0  0
 18 35  1  0  0  0  0
 18 36  1  0  0  0  0
 19 37  1  0  0  0  0
 19 38  1  0  0  0  0
 20 39  1  0  0  0  0
 20 40  1  0  0  0  0
 20 41  1  0  0  0  0
M  END
> <PUBCHEM_COMPOUND_CID>
44382829

> <PUBCHEM_COMPOUND_CANONICALIZED>
1

> <PUBCHEM_CACTVS_COMPLEXITY>
351

> <PUBCHEM_CACTVS_HBOND_ACCEPTOR>
4

> <PUBCHEM_CACTVS_HBOND_DONOR>
0

> <PUBCHEM_CACTVS_ROTATABLE_BOND>
2

> <PUBCHEM_CACTVS_SUBSKEYS>
AAADceB6MAAAAAAAAAAAAAAAAAAAASAAAAA8SIAAAAAAAEixAAAAHgAAAAAADDzhmAYyBoMABACAAiBCAAACCAAgIAAAiAAOCIgOJyKEsRuHOCClwBGYqAfw8P8OQQABAAAIAACCAAIAABAAAAAAAAAAAA==

> <PUBCHEM_IUPAC_OPENEYE_NAME>
(2R,7R)-6-propyl-3,9,15-trioxa-6-azatetracyclo[8.7.0.02,7.012,16]heptadeca-1(10),11,16-triene

> <PUBCHEM_IUPAC_CAS_NAME>
(2R,7R)-6-propyl-3,9,15-trioxa-6-azatetracyclo[8.7.0.02,7.012,16]heptadeca-1(10),11,16-triene

> <PUBCHEM_IUPAC_NAME_MARKUP>
(2<I>R</I>,7<I>R</I>)-6-propyl-3,9,15-trioxa-6-azatetracyclo[8.7.0.0<SUP>2,7</SUP>.0<SUP>12,16</SUP>]heptadeca-1(10),11,16-triene

> <PUBCHEM_IUPAC_NAME>
(2R,7R)-6-propyl-3,9,15-trioxa-6-azatetracyclo[8.7.0.02,7.012,16]heptadeca-1(10),11,16-triene

> <PUBCHEM_IUPAC_SYSTEMATIC_NAME>
(2R,7R)-6-propyl-3,9,15-trioxa-6-azatetracyclo[8.7.0.02,7.012,16]heptadeca-1(10),11,16-triene

> <PUBCHEM_IUPAC_TRADITIONAL_NAME>
(2R,7R)-6-propyl-3,9,15-trioxa-6-azatetracyclo[8.7.0.02,7.012,16]heptadeca-1(10),11,16-triene

> <PUBCHEM_IUPAC_INCHI>
InChI=1S/C16H21NO3/c1-2-4-17-5-7-19-16-12-9-14-11(3-6-18-14)8-15(12)20-10-13(16)17/h8-9,13,16H,2-7,10H2,1H3/t13-,16-/m1/s1

> <PUBCHEM_IUPAC_INCHIKEY>
ZLSIXWCLVGKULN-CZUORRHYSA-N

> <PUBCHEM_XLOGP3>
2.3

> <PUBCHEM_EXACT_MASS>
275.15214353

> <PUBCHEM_MOLECULAR_FORMULA>
C16H21NO3

> <PUBCHEM_MOLECULAR_WEIGHT>
275.34

> <PUBCHEM_OPENEYE_CAN_SMILES>
CCCN1CCOC2C1COC3=C2C=C4C(=C3)CCO4

> <PUBCHEM_OPENEYE_ISO_SMILES>
CCCN1CCO[C@H]2[C@H]1COC3=C2C=C4C(=C3)CCO4

> <PUBCHEM_CACTVS_TPSA>
30.9

> <PUBCHEM_MONOISOTOPIC_WEIGHT>
275.15214353

> <PUBCHEM_TOTAL_CHARGE>
0

> <PUBCHEM_HEAVY_ATOM_COUNT>
20

> <PUBCHEM_ATOM_DEF_STEREO_COUNT>
2

> <PUBCHEM_ATOM_UDEF_STEREO_COUNT>
0

> <PUBCHEM_BOND_DEF_STEREO_COUNT>
0

> <PUBCHEM_BOND_UDEF_STEREO_COUNT>
0

> <PUBCHEM_ISOTOPIC_ATOM_COUNT>
0

> <PUBCHEM_COMPONENT_COUNT>
1

> <PUBCHEM_CACTVS_TAUTO_COUNT>
-1

> <PUBCHEM_COORDINATE_TYPE>
1
5
255

> <PUBCHEM_BONDANNOTATIONS>
12  16  8
13  15  8
14  15  8
14  16  8
5  21  5
6  22  6
8  12  8
8  13  8

$$$$
