71508640
  -OEChem-09292322332D

 54 58  0     0  0  0  0  0  0999 V2000
    8.3696   -4.6068    0.0000 F   0  0  0  0  0  0  0  0  0  0  0  0
    8.0590    3.6563    0.0000 N   0  0  0  0  0  0  0  0  0  0  0  0
    7.1270   -0.8047    0.0000 N   0  0  0  0  0  0  0  0  0  0  0  0
    2.6691    0.5933    0.0000 N   0  0  0  0  0  0  0  0  0  0  0  0
    2.0000    1.3364    0.0000 N   0  0  0  0  0  0  0  0  0  0  0  0
    7.4376    1.7552    0.0000 C   0  0  0  0  0  0  0  0  0  0  0  0
    8.4161    1.9615    0.0000 C   0  0  0  0  0  0  0  0  0  0  0  0
    6.7698    2.4996    0.0000 C   0  0  0  0  0  0  0  0  0  0  0  0
    7.1270    0.8047    0.0000 C   0  0  0  0  0  0  0  0  0  0  0  0
    8.7268    2.9120    0.0000 C   0  0  0  0  0  0  0  0  0  0  0  0
    7.0804    3.4501    0.0000 C   0  0  0  0  0  0  0  0  0  0  0  0
    6.1808    0.5000    0.0000 C   0  0  0  0  0  0  0  0  0  0  0  0
    7.7106    0.0000    0.0000 C   0  0  0  0  0  0  0  0  0  0  0  0
    6.1808   -0.5000    0.0000 C   0  0  0  0  0  0  0  0  0  0  0  0
    8.3696    4.6068    0.0000 C   0  0  0  0  0  0  0  0  0  0  0  0
    5.3147    1.0000    0.0000 C   0  0  0  0  0  0  0  0  0  0  0  0
    5.3147   -1.0000    0.0000 C   0  0  0  0  0  0  0  0  0  0  0  0
    4.4487    0.5000    0.0000 C   0  0  0  0  0  0  0  0  0  0  0  0
    7.4376   -1.7552    0.0000 C   0  0  0  0  0  0  0  0  0  0  0  0
    4.4487   -0.5000    0.0000 C   0  0  0  0  0  0  0  0  0  0  0  0
    3.5827    1.0000    0.0000 C   0  0  0  0  0  0  0  0  0  0  0  0
    8.4161   -1.9615    0.0000 C   0  0  0  0  0  0  0  0  0  0  0  0
    6.7698   -2.4996    0.0000 C   0  0  0  0  0  0  0  0  0  0  0  0
    3.4782    1.9945    0.0000 C   0  0  0  0  0  0  0  0  0  0  0  0
    8.7268   -2.9120    0.0000 C   0  0  0  0  0  0  0  0  0  0  0  0
    7.0804   -3.4501    0.0000 C   0  0  0  0  0  0  0  0  0  0  0  0
    8.0590   -3.6563    0.0000 C   0  0  0  0  0  0  0  0  0  0  0  0
    2.5000    2.2024    0.0000 C   0  0  0  0  0  0  0  0  0  0  0  0
    2.4612   -0.3849    0.0000 C   0  0  0  0  0  0  0  0  0  0  0  0
    6.8310    1.6274    0.0000 H   0  0  0  0  0  0  0  0  0  0  0  0
    8.4367    1.3418    0.0000 H   0  0  0  0  0  0  0  0  0  0  0  0
    9.0300    1.8741    0.0000 H   0  0  0  0  0  0  0  0  0  0  0  0
    6.2229    2.7916    0.0000 H   0  0  0  0  0  0  0  0  0  0  0  0
    6.3872    2.0116    0.0000 H   0  0  0  0  0  0  0  0  0  0  0  0
    9.2737    2.6200    0.0000 H   0  0  0  0  0  0  0  0  0  0  0  0
    9.1094    3.3999    0.0000 H   0  0  0  0  0  0  0  0  0  0  0  0
    7.0599    4.0697    0.0000 H   0  0  0  0  0  0  0  0  0  0  0  0
    6.4666    3.5374    0.0000 H   0  0  0  0  0  0  0  0  0  0  0  0
    8.3306    0.0000    0.0000 H   0  0  0  0  0  0  0  0  0  0  0  0
    8.9589    4.4142    0.0000 H   0  0  0  0  0  0  0  0  0  0  0  0
    8.5622    5.1961    0.0000 H   0  0  0  0  0  0  0  0  0  0  0  0
    7.7803    4.7994    0.0000 H   0  0  0  0  0  0  0  0  0  0  0  0
    5.3147    1.6200    0.0000 H   0  0  0  0  0  0  0  0  0  0  0  0
    5.3147   -1.6200    0.0000 H   0  0  0  0  0  0  0  0  0  0  0  0
    3.9118   -0.8100    0.0000 H   0  0  0  0  0  0  0  0  0  0  0  0
    8.8302   -1.5000    0.0000 H   0  0  0  0  0  0  0  0  0  0  0  0
    6.1631   -2.3717    0.0000 H   0  0  0  0  0  0  0  0  0  0  0  0
    3.9389    2.4094    0.0000 H   0  0  0  0  0  0  0  0  0  0  0  0
    9.3335   -3.0398    0.0000 H   0  0  0  0  0  0  0  0  0  0  0  0
    6.6664   -3.9115    0.0000 H   0  0  0  0  0  0  0  0  0  0  0  0
    2.2478    2.7688    0.0000 H   0  0  0  0  0  0  0  0  0  0  0  0
    1.8548   -0.2560    0.0000 H   0  0  0  0  0  0  0  0  0  0  0  0
    2.3323   -0.9913    0.0000 H   0  0  0  0  0  0  0  0  0  0  0  0
    3.0677   -0.5138    0.0000 H   0  0  0  0  0  0  0  0  0  0  0  0
  1 27  1  0  0  0  0
  2 10  1  0  0  0  0
  2 11  1  0  0  0  0
  2 15  1  0  0  0  0
  3 13  1  0  0  0  0
  3 14  1  0  0  0  0
  3 19  1  0  0  0  0
  4  5  1  0  0  0  0
  4 21  1  0  0  0  0
  4 29  1  0  0  0  0
  5 28  2  0  0  0  0
  6  7  1  0  0  0  0
  6  8  1  0  0  0  0
  6  9  1  0  0  0  0
  6 30  1  0  0  0  0
  7 10  1  0  0  0  0
  7 31  1  0  0  0  0
  7 32  1  0  0  0  0
  8 11  1  0  0  0  0
  8 33  1  0  0  0  0
  8 34  1  0  0  0  0
  9 12  1  0  0  0  0
  9 13  2  0  0  0  0
 10 35  1  0  0  0  0
 10 36  1  0  0  0  0
 11 37  1  0  0  0  0
 11 38  1  0  0  0  0
 12 14  2  0  0  0  0
 12 16  1  0  0  0  0
 13 39  1  0  0  0  0
 14 17  1  0  0  0  0
 15 40  1  0  0  0  0
 15 41  1  0  0  0  0
 15 42  1  0  0  0  0
 16 18  2  0  0  0  0
 16 43  1  0  0  0  0
 17 20  2  0  0  0  0
 17 44  1  0  0  0  0
 18 20  1  0  0  0  0
 18 21  1  0  0  0  0
 19 22  2  0  0  0  0
 19 23  1  0  0  0  0
 20 45  1  0  0  0  0
 21 24  2  0  0  0  0
 22 25  1  0  0  0  0
 22 46  1  0  0  0  0
 23 26  2  0  0  0  0
 23 47  1  0  0  0  0
 24 28  1  0  0  0  0
 24 48  1  0  0  0  0
 25 27  2  0  0  0  0
 25 49  1  0  0  0  0
 26 27  1  0  0  0  0
 26 50  1  0  0  0  0
 28 51  1  0  0  0  0
 29 52  1  0  0  0  0
 29 53  1  0  0  0  0
 29 54  1  0  0  0  0
M  END
> <PUBCHEM_COMPOUND_CID>
71508640

> <PUBCHEM_COMPOUND_CANONICALIZED>
1

> <PUBCHEM_CACTVS_COMPLEXITY>
543

> <PUBCHEM_CACTVS_HBOND_ACCEPTOR>
3

> <PUBCHEM_CACTVS_HBOND_DONOR>
0

> <PUBCHEM_CACTVS_ROTATABLE_BOND>
3

> <PUBCHEM_CACTVS_SUBSKEYS>
AAADceB7gQAAAAAAAAAAAAAAAAAAAWLAAAA8YIAAAAAAAFgB/AAAHQAIAAAADQjBHgw+wPMMEACiAzRnRACShCAxgiAY2CA4ZJgIIOLA0dGEpAhgiADIyAcQgMAOiAACAAACAAAQAAQAAAQAAAAAAAAAAA==

> <PUBCHEM_IUPAC_OPENEYE_NAME>
1-(4-fluorophenyl)-3-(1-methyl-4-piperidyl)-5-(2-methylpyrazol-3-yl)indole

> <PUBCHEM_IUPAC_CAS_NAME>
1-(4-fluorophenyl)-3-(1-methyl-4-piperidinyl)-5-(2-methyl-3-pyrazolyl)indole

> <PUBCHEM_IUPAC_NAME_MARKUP>
1-(4-fluorophenyl)-3-(1-methylpiperidin-4-yl)-5-(2-methylpyrazol-3-yl)indole

> <PUBCHEM_IUPAC_NAME>
1-(4-fluorophenyl)-3-(1-methylpiperidin-4-yl)-5-(2-methylpyrazol-3-yl)indole

> <PUBCHEM_IUPAC_SYSTEMATIC_NAME>
1-(4-fluorophenyl)-3-(1-methylpiperidin-4-yl)-5-(2-methylpyrazol-3-yl)indole

> <PUBCHEM_IUPAC_TRADITIONAL_NAME>
1-(4-fluorophenyl)-3-(1-methyl-4-piperidyl)-5-(2-methylpyrazol-3-yl)indole

> <PUBCHEM_IUPAC_INCHI>
InChI=1S/C24H25FN4/c1-27-13-10-17(11-14-27)22-16-29(20-6-4-19(25)5-7-20)24-8-3-18(15-21(22)24)23-9-12-26-28(23)2/h3-9,12,15-17H,10-11,13-14H2,1-2H3

> <PUBCHEM_IUPAC_INCHIKEY>
WRURBHLNYRDTFF-UHFFFAOYSA-N

> <PUBCHEM_XLOGP3_AA>
4.3

> <PUBCHEM_EXACT_MASS>
388.20632498

> <PUBCHEM_MOLECULAR_FORMULA>
C24H25FN4

> <PUBCHEM_MOLECULAR_WEIGHT>
388.5

> <PUBCHEM_OPENEYE_CAN_SMILES>
CN1CCC(CC1)C2=CN(C3=C2C=C(C=C3)C4=CC=NN4C)C5=CC=C(C=C5)F

> <PUBCHEM_OPENEYE_ISO_SMILES>
CN1CCC(CC1)C2=CN(C3=C2C=C(C=C3)C4=CC=NN4C)C5=CC=C(C=C5)F

> <PUBCHEM_CACTVS_TPSA>
26

> <PUBCHEM_MONOISOTOPIC_WEIGHT>
388.20632498

> <PUBCHEM_TOTAL_CHARGE>
0

> <PUBCHEM_HEAVY_ATOM_COUNT>
29

> <PUBCHEM_ATOM_DEF_STEREO_COUNT>
0

> <PUBCHEM_ATOM_UDEF_STEREO_COUNT>
0

> <PUBCHEM_BOND_DEF_STEREO_COUNT>
0

> <PUBCHEM_BOND_UDEF_STEREO_COUNT>
0

> <PUBCHEM_ISOTOPIC_ATOM_COUNT>
0

> <PUBCHEM_COMPONENT_COUNT>
1

> <PUBCHEM_CACTVS_TAUTO_COUNT>
-1

> <PUBCHEM_COORDINATE_TYPE>
1
5
255

> <PUBCHEM_BONDANNOTATIONS>
12  14  8
12  16  8
14  17  8
16  18  8
17  20  8
18  20  8
19  22  8
19  23  8
21  24  8
22  25  8
23  26  8
24  28  8
25  27  8
26  27  8
3  13  8
3  14  8
4  21  8
4  5  8
5  28  8
9  12  8
9  13  8

$$$$
