71541077
  -OEChem-09292322072D

 34 36  0     1  0  0  0  0  0999 V2000
    4.1087   -1.9721    0.0000 S   0  0  0  0  0  0  0  0  0  0  0  0
    5.8262    2.6121    0.0000 N   0  0  3  0  0  0  0  0  0  0  0  0
    2.7149   -1.1674    0.0000 N   0  0  0  0  0  0  0  0  0  0  0  0
    2.6200   -2.9412    0.0000 N   0  0  0  0  0  0  0  0  0  0  0  0
    6.3798    1.8025    0.0000 C   0  0  0  0  0  0  0  0  0  0  0  0
    4.8483    2.6868    0.0000 C   0  0  0  0  0  0  0  0  0  0  0  0
    6.0945    0.8641    0.0000 C   0  0  0  0  0  0  0  0  0  0  0  0
    4.1783    1.9705    0.0000 C   0  0  0  0  0  0  0  0  0  0  0  0
    5.1840    0.4997    0.0000 C   0  0  0  0  0  0  0  0  0  0  0  0
    4.3179    0.9997    0.0000 C   0  0  0  0  0  0  0  0  0  0  0  0
    6.3262    3.4782    0.0000 C   0  0  0  0  0  0  0  0  0  0  0  0
    5.1840   -0.5003    0.0000 C   0  0  0  0  0  0  0  0  0  0  0  0
    3.4519    0.4997    0.0000 C   0  0  0  0  0  0  0  0  0  0  0  0
    4.3179   -1.0003    0.0000 C   0  0  0  0  0  0  0  0  0  0  0  0
    3.4519   -0.5003    0.0000 C   0  0  0  0  0  0  0  0  0  0  0  0
    7.3262    3.4782    0.0000 C   0  0  0  0  0  0  0  0  0  0  0  0
    3.1200   -2.0752    0.0000 C   0  0  0  0  0  0  0  0  0  0  0  0
    6.9177    1.4942    0.0000 H   0  0  0  0  0  0  0  0  0  0  0  0
    6.8005    2.2580    0.0000 H   0  0  0  0  0  0  0  0  0  0  0  0
    5.0324    3.2788    0.0000 H   0  0  0  0  0  0  0  0  0  0  0  0
    4.3123    2.9984    0.0000 H   0  0  0  0  0  0  0  0  0  0  0  0
    6.1905    0.2516    0.0000 H   0  0  0  0  0  0  0  0  0  0  0  0
    6.7130    0.8208    0.0000 H   0  0  0  0  0  0  0  0  0  0  0  0
    3.8316    2.4845    0.0000 H   0  0  0  0  0  0  0  0  0  0  0  0
    3.5998    1.7473    0.0000 H   0  0  0  0  0  0  0  0  0  0  0  0
    6.4339    4.0887    0.0000 H   0  0  0  0  0  0  0  0  0  0  0  0
    5.7436    3.6902    0.0000 H   0  0  0  0  0  0  0  0  0  0  0  0
    5.7209   -0.8103    0.0000 H   0  0  0  0  0  0  0  0  0  0  0  0
    2.9150    0.8097    0.0000 H   0  0  0  0  0  0  0  0  0  0  0  0
    7.3262    2.8582    0.0000 H   0  0  0  0  0  0  0  0  0  0  0  0
    7.9462    3.4782    0.0000 H   0  0  0  0  0  0  0  0  0  0  0  0
    7.3262    4.0982    0.0000 H   0  0  0  0  0  0  0  0  0  0  0  0
    2.0000   -2.9412    0.0000 H   0  0  0  0  0  0  0  0  0  0  0  0
    2.9300   -3.4782    0.0000 H   0  0  0  0  0  0  0  0  0  0  0  0
  1 14  1  0  0  0  0
  1 17  1  0  0  0  0
  2  5  1  0  0  0  0
  2  6  1  0  0  0  0
  2 11  1  0  0  0  0
  3 15  1  0  0  0  0
  3 17  2  0  0  0  0
  4 17  1  0  0  0  0
  4 33  1  0  0  0  0
  4 34  1  0  0  0  0
  5  7  1  0  0  0  0
  5 18  1  0  0  0  0
  5 19  1  0  0  0  0
  6  8  1  0  0  0  0
  6 20  1  0  0  0  0
  6 21  1  0  0  0  0
  7  9  1  0  0  0  0
  7 22  1  0  0  0  0
  7 23  1  0  0  0  0
  8 10  1  0  0  0  0
  8 24  1  0  0  0  0
  8 25  1  0  0  0  0
  9 10  1  0  0  0  0
  9 12  2  0  0  0  0
 10 13  2  0  0  0  0
 11 16  1  0  0  0  0
 11 26  1  0  0  0  0
 11 27  1  0  0  0  0
 12 14  1  0  0  0  0
 12 28  1  0  0  0  0
 13 15  1  0  0  0  0
 13 29  1  0  0  0  0
 14 15  2  0  0  0  0
 16 30  1  0  0  0  0
 16 31  1  0  0  0  0
 16 32  1  0  0  0  0
M  END
> <PUBCHEM_COMPOUND_CID>
71541077

> <PUBCHEM_COMPOUND_CANONICALIZED>
1

> <PUBCHEM_CACTVS_COMPLEXITY>
273

> <PUBCHEM_CACTVS_HBOND_ACCEPTOR>
4

> <PUBCHEM_CACTVS_HBOND_DONOR>
1

> <PUBCHEM_CACTVS_ROTATABLE_BOND>
1

> <PUBCHEM_CACTVS_SUBSKEYS>
AAADceBzAABAAAAAAAAAAAAAAAAAAWAAAAAwAAAABYAAAFgB8AAAHAQQAAAADAjBXgQz0bNIEAikAyRiZACD8KlhCjlAmDw4ZJiIIKLgkZGEIAhggALIyCcQgIAOmAAAwAAQAQAwAAGAACACAAAAAAAAAA==

> <PUBCHEM_IUPAC_OPENEYE_NAME>
7-ethyl-5,6,8,9-tetrahydrothiazolo[4,5-h][3]benzazepin-2-amine

> <PUBCHEM_IUPAC_CAS_NAME>
7-ethyl-5,6,8,9-tetrahydrothiazolo[4,5-h][3]benzazepin-2-amine

> <PUBCHEM_IUPAC_NAME_MARKUP>
7-ethyl-5,6,8,9-tetrahydro-[1,3]thiazolo[4,5-h][3]benzazepin-2-amine

> <PUBCHEM_IUPAC_NAME>
7-ethyl-5,6,8,9-tetrahydro-[1,3]thiazolo[4,5-h][3]benzazepin-2-amine

> <PUBCHEM_IUPAC_SYSTEMATIC_NAME>
7-ethyl-5,6,8,9-tetrahydro-[1,3]thiazolo[4,5-h][3]benzazepin-2-amine

> <PUBCHEM_IUPAC_TRADITIONAL_NAME>
(7-ethyl-5,6,8,9-tetrahydrothiazolo[4,5-h][3]benzazepin-2-yl)amine

> <PUBCHEM_IUPAC_INCHI>
InChI=1S/C13H17N3S/c1-2-16-5-3-9-7-11-12(17-13(14)15-11)8-10(9)4-6-16/h7-8H,2-6H2,1H3,(H2,14,15)

> <PUBCHEM_IUPAC_INCHIKEY>
JWBVNNFHWXWIGX-UHFFFAOYSA-N

> <PUBCHEM_XLOGP3_AA>
2.7

> <PUBCHEM_EXACT_MASS>
247.11431873

> <PUBCHEM_MOLECULAR_FORMULA>
C13H17N3S

> <PUBCHEM_MOLECULAR_WEIGHT>
247.36

> <PUBCHEM_OPENEYE_CAN_SMILES>
CCN1CCC2=CC3=C(C=C2CC1)SC(=N3)N

> <PUBCHEM_OPENEYE_ISO_SMILES>
CCN1CCC2=CC3=C(C=C2CC1)SC(=N3)N

> <PUBCHEM_CACTVS_TPSA>
70.4

> <PUBCHEM_MONOISOTOPIC_WEIGHT>
247.11431873

> <PUBCHEM_TOTAL_CHARGE>
0

> <PUBCHEM_HEAVY_ATOM_COUNT>
17

> <PUBCHEM_ATOM_DEF_STEREO_COUNT>
0

> <PUBCHEM_ATOM_UDEF_STEREO_COUNT>
0

> <PUBCHEM_BOND_DEF_STEREO_COUNT>
0

> <PUBCHEM_BOND_UDEF_STEREO_COUNT>
0

> <PUBCHEM_ISOTOPIC_ATOM_COUNT>
0

> <PUBCHEM_COMPONENT_COUNT>
1

> <PUBCHEM_CACTVS_TAUTO_COUNT>
-1

> <PUBCHEM_COORDINATE_TYPE>
1
5
255

> <PUBCHEM_BONDANNOTATIONS>
1  14  8
1  17  8
10  13  8
12  14  8
13  15  8
14  15  8
3  15  8
3  17  8
9  10  8
9  12  8

$$$$
