145984337
  -OEChem-09292322392D

112117  0     0  0  0  0  0  0999 V2000
    2.9705   13.5506    0.0000 S   0  0  0  0  0  0  0  0  0  0  0  0
    8.6172  -12.7585    0.0000 O   0  0  0  0  0  0  0  0  0  0  0  0
    4.2871   -6.2585    0.0000 O   0  0  0  0  0  0  0  0  0  0  0  0
    6.0191   -5.2585    0.0000 O   0  0  0  0  0  0  0  0  0  0  0  0
    8.1540    0.3119    0.0000 O   0  0  0  0  0  0  0  0  0  0  0  0
    7.9283    2.9480    0.0000 O   0  0  0  0  0  0  0  0  0  0  0  0
    8.6971    5.4796    0.0000 O   0  0  0  0  0  0  0  0  0  0  0  0
    9.2403   10.6473    0.0000 O   0  0  0  0  0  0  0  0  0  0  0  0
   10.0537    8.8202    0.0000 O   0  0  0  0  0  0  0  0  0  0  0  0
    6.8851   -9.7585    0.0000 N   0  0  0  0  0  0  0  0  0  0  0  0
    8.6172  -10.7585    0.0000 N   0  0  0  0  0  0  0  0  0  0  0  0
    7.3851   -2.2197    0.0000 N   0  0  0  0  0  0  0  0  0  0  0  0
    6.0761   -3.1707    0.0000 N   0  0  0  0  0  0  0  0  0  0  0  0
    6.3851   -2.2197    0.0000 N   0  0  0  0  0  0  0  0  0  0  0  0
    8.4714    8.1157    0.0000 N   0  0  0  0  0  0  0  0  0  0  0  0
    9.0146   13.2834    0.0000 N   0  0  0  0  0  0  0  0  0  0  0  0
    3.7796   12.1493    0.0000 N   0  0  0  0  0  0  0  0  0  0  0  0
    6.8851  -10.7585    0.0000 C   0  0  0  0  0  0  0  0  0  0  0  0
    7.7512   -9.2585    0.0000 C   0  0  0  0  0  0  0  0  0  0  0  0
    7.7512  -11.2585    0.0000 C   0  0  0  0  0  0  0  0  0  0  0  0
    8.6172   -9.7585    0.0000 C   0  0  0  0  0  0  0  0  0  0  0  0
    6.0191   -9.2585    0.0000 C   0  0  0  0  0  0  0  0  0  0  0  0
    9.4832  -11.2585    0.0000 C   0  0  0  0  0  0  0  0  0  0  0  0
    6.0191   -8.2585    0.0000 C   0  0  0  0  0  0  0  0  0  0  0  0
    9.4832  -12.2585    0.0000 C   0  0  0  0  0  0  0  0  0  0  0  0
   10.3492  -10.7585    0.0000 C   0  0  0  0  0  0  0  0  0  0  0  0
    5.1531   -7.7585    0.0000 C   0  0  0  0  0  0  0  0  0  0  0  0
    6.8851   -7.7585    0.0000 C   0  0  0  0  0  0  0  0  0  0  0  0
   10.3492  -12.7585    0.0000 C   0  0  0  0  0  0  0  0  0  0  0  0
   11.2153  -11.2585    0.0000 C   0  0  0  0  0  0  0  0  0  0  0  0
    5.1531   -6.7585    0.0000 C   0  0  0  0  0  0  0  0  0  0  0  0
    6.8851   -6.7585    0.0000 C   0  0  0  0  0  0  0  0  0  0  0  0
   11.2153  -12.2585    0.0000 C   0  0  0  0  0  0  0  0  0  0  0  0
    6.0191   -6.2585    0.0000 C   0  0  0  0  0  0  0  0  0  0  0  0
    8.6172  -13.7585    0.0000 C   0  0  0  0  0  0  0  0  0  0  0  0
    6.8851   -4.7585    0.0000 C   0  0  0  0  0  0  0  0  0  0  0  0
    3.4210   -6.7585    0.0000 C   0  0  0  0  0  0  0  0  0  0  0  0
    6.8851   -3.7585    0.0000 C   0  0  0  0  0  0  0  0  0  0  0  0
    7.6942   -3.1707    0.0000 C   0  0  0  0  0  0  0  0  0  0  0  0
    7.9729   -1.4106    0.0000 C   0  0  0  0  0  0  0  0  0  0  0  0
    7.5662   -0.4971    0.0000 C   0  0  0  0  0  0  0  0  0  0  0  0
    7.7472    1.2254    0.0000 C   0  0  0  0  0  0  0  0  0  0  0  0
    8.3350    2.0345    0.0000 C   0  0  0  0  0  0  0  0  0  0  0  0
    8.5161    3.7570    0.0000 C   0  0  0  0  0  0  0  0  0  0  0  0
    8.1093    4.6706    0.0000 C   0  0  0  0  0  0  0  0  0  0  0  0
    8.2904    6.3931    0.0000 C   0  0  0  0  0  0  0  0  0  0  0  0
    8.8782    7.2022    0.0000 C   0  0  0  0  0  0  0  0  0  0  0  0
    9.0592    8.9247    0.0000 C   0  0  0  0  0  0  0  0  0  0  0  0
    8.6525    9.8383    0.0000 C   0  0  0  0  0  0  0  0  0  0  0  0
    8.8335   11.5608    0.0000 C   0  0  0  0  0  0  0  0  0  0  0  0
    7.8390   11.6654    0.0000 C   0  0  0  0  0  0  0  0  0  0  0  0
    9.4213   12.3698    0.0000 C   0  0  0  0  0  0  0  0  0  0  0  0
    7.4323   12.5789    0.0000 C   0  0  0  0  0  0  0  0  0  0  0  0
    8.0200   13.3879    0.0000 C   0  0  0  0  0  0  0  0  0  0  0  0
    6.4378   12.6834    0.0000 C   0  0  0  0  0  0  0  0  0  0  0  0
    5.4432   12.7880    0.0000 C   0  0  0  0  0  0  0  0  0  0  0  0
    4.4487   12.8925    0.0000 C   0  0  0  0  0  0  0  0  0  0  0  0
    3.9487   13.7585    0.0000 C   0  0  0  0  0  0  0  0  0  0  0  0
    2.8660   12.5561    0.0000 C   0  0  0  0  0  0  0  0  0  0  0  0
    2.0000   12.0561    0.0000 C   0  0  0  0  0  0  0  0  0  0  0  0
    6.2746  -10.6509    0.0000 H   0  0  0  0  0  0  0  0  0  0  0  0
    6.6731  -11.3411    0.0000 H   0  0  0  0  0  0  0  0  0  0  0  0
    8.1497   -8.7836    0.0000 H   0  0  0  0  0  0  0  0  0  0  0  0
    7.3526   -8.7836    0.0000 H   0  0  0  0  0  0  0  0  0  0  0  0
    7.3526  -11.7335    0.0000 H   0  0  0  0  0  0  0  0  0  0  0  0
    8.1497  -11.7335    0.0000 H   0  0  0  0  0  0  0  0  0  0  0  0
    9.2278   -9.8662    0.0000 H   0  0  0  0  0  0  0  0  0  0  0  0
    8.8292   -9.1759    0.0000 H   0  0  0  0  0  0  0  0  0  0  0  0
    5.4085   -9.1508    0.0000 H   0  0  0  0  0  0  0  0  0  0  0  0
    5.8071   -9.8411    0.0000 H   0  0  0  0  0  0  0  0  0  0  0  0
   10.3492  -10.1385    0.0000 H   0  0  0  0  0  0  0  0  0  0  0  0
    4.6162   -8.0685    0.0000 H   0  0  0  0  0  0  0  0  0  0  0  0
    7.4221   -8.0685    0.0000 H   0  0  0  0  0  0  0  0  0  0  0  0
   10.3492  -13.3785    0.0000 H   0  0  0  0  0  0  0  0  0  0  0  0
   11.7522  -10.9485    0.0000 H   0  0  0  0  0  0  0  0  0  0  0  0
    7.4221   -6.4485    0.0000 H   0  0  0  0  0  0  0  0  0  0  0  0
   11.7522  -12.5685    0.0000 H   0  0  0  0  0  0  0  0  0  0  0  0
    7.9972  -13.7585    0.0000 H   0  0  0  0  0  0  0  0  0  0  0  0
    8.6172  -14.3785    0.0000 H   0  0  0  0  0  0  0  0  0  0  0  0
    9.2372  -13.7585    0.0000 H   0  0  0  0  0  0  0  0  0  0  0  0
    7.0972   -5.3411    0.0000 H   0  0  0  0  0  0  0  0  0  0  0  0
    7.4957   -4.6508    0.0000 H   0  0  0  0  0  0  0  0  0  0  0  0
    3.1110   -6.2216    0.0000 H   0  0  0  0  0  0  0  0  0  0  0  0
    2.8841   -7.0685    0.0000 H   0  0  0  0  0  0  0  0  0  0  0  0
    3.7310   -7.2954    0.0000 H   0  0  0  0  0  0  0  0  0  0  0  0
    8.2838   -3.3623    0.0000 H   0  0  0  0  0  0  0  0  0  0  0  0
    8.4036   -1.8566    0.0000 H   0  0  0  0  0  0  0  0  0  0  0  0
    8.4869   -1.0640    0.0000 H   0  0  0  0  0  0  0  0  0  0  0  0
    7.1355   -0.0511    0.0000 H   0  0  0  0  0  0  0  0  0  0  0  0
    7.0522   -0.8438    0.0000 H   0  0  0  0  0  0  0  0  0  0  0  0
    7.3166    1.6714    0.0000 H   0  0  0  0  0  0  0  0  0  0  0  0
    7.2332    0.8788    0.0000 H   0  0  0  0  0  0  0  0  0  0  0  0
    8.7657    1.5885    0.0000 H   0  0  0  0  0  0  0  0  0  0  0  0
    8.8490    2.3812    0.0000 H   0  0  0  0  0  0  0  0  0  0  0  0
    8.9468    3.3110    0.0000 H   0  0  0  0  0  0  0  0  0  0  0  0
    9.0301    4.1037    0.0000 H   0  0  0  0  0  0  0  0  0  0  0  0
    7.6786    5.1166    0.0000 H   0  0  0  0  0  0  0  0  0  0  0  0
    7.5953    4.3239    0.0000 H   0  0  0  0  0  0  0  0  0  0  0  0
    7.8597    6.8391    0.0000 H   0  0  0  0  0  0  0  0  0  0  0  0
    7.7764    6.0464    0.0000 H   0  0  0  0  0  0  0  0  0  0  0  0
    9.3088    6.7562    0.0000 H   0  0  0  0  0  0  0  0  0  0  0  0
    9.3922    7.5489    0.0000 H   0  0  0  0  0  0  0  0  0  0  0  0
    7.8548    8.1805    0.0000 H   0  0  0  0  0  0  0  0  0  0  0  0
    8.2218   10.2843    0.0000 H   0  0  0  0  0  0  0  0  0  0  0  0
    8.1385    9.4916    0.0000 H   0  0  0  0  0  0  0  0  0  0  0  0
    7.4746   11.1638    0.0000 H   0  0  0  0  0  0  0  0  0  0  0  0
   10.0379   12.3050    0.0000 H   0  0  0  0  0  0  0  0  0  0  0  0
    7.7679   13.9543    0.0000 H   0  0  0  0  0  0  0  0  0  0  0  0
    4.2009   14.3249    0.0000 H   0  0  0  0  0  0  0  0  0  0  0  0
    1.6900   12.5930    0.0000 H   0  0  0  0  0  0  0  0  0  0  0  0
    1.4631   11.7461    0.0000 H   0  0  0  0  0  0  0  0  0  0  0  0
    2.3100   11.5191    0.0000 H   0  0  0  0  0  0  0  0  0  0  0  0
  1 58  1  0  0  0  0
  1 59  1  0  0  0  0
  2 25  1  0  0  0  0
  2 35  1  0  0  0  0
  3 31  1  0  0  0  0
  3 37  1  0  0  0  0
  4 34  1  0  0  0  0
  4 36  1  0  0  0  0
  5 41  1  0  0  0  0
  5 42  1  0  0  0  0
  6 43  1  0  0  0  0
  6 44  1  0  0  0  0
  7 45  1  0  0  0  0
  7 46  1  0  0  0  0
  8 49  1  0  0  0  0
  8 50  1  0  0  0  0
  9 48  2  0  0  0  0
 10 18  1  0  0  0  0
 10 19  1  0  0  0  0
 10 22  1  0  0  0  0
 11 20  1  0  0  0  0
 11 21  1  0  0  0  0
 11 23  1  0  0  0  0
 12 14  1  0  0  0  0
 12 39  1  0  0  0  0
 12 40  1  0  0  0  0
 13 14  2  0  0  0  0
 13 38  1  0  0  0  0
 15 47  1  0  0  0  0
 15 48  1  0  0  0  0
 15103  1  0  0  0  0
 16 52  1  0  0  0  0
 16 54  2  0  0  0  0
 17 57  1  0  0  0  0
 17 59  2  0  0  0  0
 18 20  1  0  0  0  0
 18 61  1  0  0  0  0
 18 62  1  0  0  0  0
 19 21  1  0  0  0  0
 19 63  1  0  0  0  0
 19 64  1  0  0  0  0
 20 65  1  0  0  0  0
 20 66  1  0  0  0  0
 21 67  1  0  0  0  0
 21 68  1  0  0  0  0
 22 24  1  0  0  0  0
 22 69  1  0  0  0  0
 22 70  1  0  0  0  0
 23 25  1  0  0  0  0
 23 26  2  0  0  0  0
 24 27  2  0  0  0  0
 24 28  1  0  0  0  0
 25 29  2  0  0  0  0
 26 30  1  0  0  0  0
 26 71  1  0  0  0  0
 27 31  1  0  0  0  0
 27 72  1  0  0  0  0
 28 32  2  0  0  0  0
 28 73  1  0  0  0  0
 29 33  1  0  0  0  0
 29 74  1  0  0  0  0
 30 33  2  0  0  0  0
 30 75  1  0  0  0  0
 31 34  2  0  0  0  0
 32 34  1  0  0  0  0
 32 76  1  0  0  0  0
 33 77  1  0  0  0  0
 35 78  1  0  0  0  0
 35 79  1  0  0  0  0
 35 80  1  0  0  0  0
 36 38  1  0  0  0  0
 36 81  1  0  0  0  0
 36 82  1  0  0  0  0
 37 83  1  0  0  0  0
 37 84  1  0  0  0  0
 37 85  1  0  0  0  0
 38 39  2  0  0  0  0
 39 86  1  0  0  0  0
 40 41  1  0  0  0  0
 40 87  1  0  0  0  0
 40 88  1  0  0  0  0
 41 89  1  0  0  0  0
 41 90  1  0  0  0  0
 42 43  1  0  0  0  0
 42 91  1  0  0  0  0
 42 92  1  0  0  0  0
 43 93  1  0  0  0  0
 43 94  1  0  0  0  0
 44 45  1  0  0  0  0
 44 95  1  0  0  0  0
 44 96  1  0  0  0  0
 45 97  1  0  0  0  0
 45 98  1  0  0  0  0
 46 47  1  0  0  0  0
 46 99  1  0  0  0  0
 46100  1  0  0  0  0
 47101  1  0  0  0  0
 47102  1  0  0  0  0
 48 49  1  0  0  0  0
 49104  1  0  0  0  0
 49105  1  0  0  0  0
 50 51  1  0  0  0  0
 50 52  2  0  0  0  0
 51 53  2  0  0  0  0
 51106  1  0  0  0  0
 52107  1  0  0  0  0
 53 54  1  0  0  0  0
 53 55  1  0  0  0  0
 54108  1  0  0  0  0
 55 56  3  0  0  0  0
 56 57  1  0  0  0  0
 57 58  2  0  0  0  0
 58109  1  0  0  0  0
 59 60  1  0  0  0  0
 60110  1  0  0  0  0
 60111  1  0  0  0  0
 60112  1  0  0  0  0
M  END
> <PUBCHEM_COMPOUND_CID>
145984337

> <PUBCHEM_COMPOUND_CANONICALIZED>
1

> <PUBCHEM_CACTVS_COMPLEXITY>
1290

> <PUBCHEM_CACTVS_HBOND_ACCEPTOR>
15

> <PUBCHEM_CACTVS_HBOND_DONOR>
1

> <PUBCHEM_CACTVS_ROTATABLE_BOND>
25

> <PUBCHEM_CACTVS_SUBSKEYS>
AAADcfB//ABAAAAAAAAAAAAAAAAAAWLAAAA8eIEAAAAAAAAB/AAAHgQYAAAADAzl3ga+x5PIFAjuEzV3VA6C/KRx+jgY2LR//JgPZuLksZ+XOCrm1hH66Aew0BIOIAABAAAAUABAAAIAAACgAAAAAAAAAA==

> <PUBCHEM_IUPAC_OPENEYE_NAME>
N-[2-[2-[2-[2-[4-[[2-methoxy-4-[[4-(2-methoxyphenyl)piperazin-1-yl]methyl]phenoxy]methyl]triazol-1-yl]ethoxy]ethoxy]ethoxy]ethyl]-2-[[5-[2-(2-methylthiazol-4-yl)ethynyl]-3-pyridyl]oxy]acetamide

> <PUBCHEM_IUPAC_CAS_NAME>
N-[2-[2-[2-[2-[4-[[2-methoxy-4-[[4-(2-methoxyphenyl)-1-piperazinyl]methyl]phenoxy]methyl]-1-triazolyl]ethoxy]ethoxy]ethoxy]ethyl]-2-[[5-[2-(2-methyl-4-thiazolyl)ethynyl]-3-pyridinyl]oxy]acetamide

> <PUBCHEM_IUPAC_NAME_MARKUP>
<I>N</I>-[2-[2-[2-[2-[4-[[2-methoxy-4-[[4-(2-methoxyphenyl)piperazin-1-yl]methyl]phenoxy]methyl]triazol-1-yl]ethoxy]ethoxy]ethoxy]ethyl]-2-[5-[2-(2-methyl-1,3-thiazol-4-yl)ethynyl]pyridin-3-yl]oxyacetamide

> <PUBCHEM_IUPAC_NAME>
N-[2-[2-[2-[2-[4-[[2-methoxy-4-[[4-(2-methoxyphenyl)piperazin-1-yl]methyl]phenoxy]methyl]triazol-1-yl]ethoxy]ethoxy]ethoxy]ethyl]-2-[5-[2-(2-methyl-1,3-thiazol-4-yl)ethynyl]pyridin-3-yl]oxyacetamide

> <PUBCHEM_IUPAC_SYSTEMATIC_NAME>
N-[2-[2-[2-[2-[4-[[2-methoxy-4-[[4-(2-methoxyphenyl)piperazin-1-yl]methyl]phenoxy]methyl]-1,2,3-triazol-1-yl]ethoxy]ethoxy]ethoxy]ethyl]-2-[5-[2-(2-methyl-1,3-thiazol-4-yl)ethynyl]pyridin-3-yl]oxy-ethanamide

> <PUBCHEM_IUPAC_TRADITIONAL_NAME>
N-[2-[2-[2-[2-[4-[[2-methoxy-4-[[4-(2-methoxyphenyl)piperazino]methyl]phenoxy]methyl]triazol-1-yl]ethoxy]ethoxy]ethoxy]ethyl]-2-[[5-[2-(2-methylthiazol-4-yl)ethynyl]-3-pyridyl]oxy]acetamide

> <PUBCHEM_IUPAC_INCHI>
InChI=1S/C43H52N8O8S/c1-33-46-36(32-60-33)10-8-34-24-38(27-44-26-34)58-31-43(52)45-12-18-55-20-22-57-23-21-56-19-17-51-29-37(47-48-51)30-59-41-11-9-35(25-42(41)54-3)28-49-13-15-50(16-14-49)39-6-4-5-7-40(39)53-2/h4-7,9,11,24-27,29,32H,12-23,28,30-31H2,1-3H3,(H,45,52)

> <PUBCHEM_IUPAC_INCHIKEY>
SIMRHOCKDXANLH-UHFFFAOYSA-N

> <PUBCHEM_XLOGP3_AA>
3.5

> <PUBCHEM_EXACT_MASS>
840.36288182

> <PUBCHEM_MOLECULAR_FORMULA>
C43H52N8O8S

> <PUBCHEM_MOLECULAR_WEIGHT>
841.0

> <PUBCHEM_OPENEYE_CAN_SMILES>
CC1=NC(=CS1)C#CC2=CC(=CN=C2)OCC(=O)NCCOCCOCCOCCN3C=C(N=N3)COC4=C(C=C(C=C4)CN5CCN(CC5)C6=CC=CC=C6OC)OC

> <PUBCHEM_OPENEYE_ISO_SMILES>
CC1=NC(=CS1)C#CC2=CC(=CN=C2)OCC(=O)NCCOCCOCCOCCN3C=C(N=N3)COC4=C(C=C(C=C4)CN5CCN(CC5)C6=CC=CC=C6OC)OC

> <PUBCHEM_CACTVS_TPSA>
185

> <PUBCHEM_MONOISOTOPIC_WEIGHT>
840.36288182

> <PUBCHEM_TOTAL_CHARGE>
0

> <PUBCHEM_HEAVY_ATOM_COUNT>
60

> <PUBCHEM_ATOM_DEF_STEREO_COUNT>
0

> <PUBCHEM_ATOM_UDEF_STEREO_COUNT>
0

> <PUBCHEM_BOND_DEF_STEREO_COUNT>
0

> <PUBCHEM_BOND_UDEF_STEREO_COUNT>
0

> <PUBCHEM_ISOTOPIC_ATOM_COUNT>
0

> <PUBCHEM_COMPONENT_COUNT>
1

> <PUBCHEM_CACTVS_TAUTO_COUNT>
-1

> <PUBCHEM_COORDINATE_TYPE>
1
5
255

> <PUBCHEM_BONDANNOTATIONS>
1  58  8
1  59  8
12  14  8
12  39  8
13  14  8
13  38  8
16  52  8
16  54  8
17  57  8
17  59  8
23  25  8
23  26  8
24  27  8
24  28  8
25  29  8
26  30  8
27  31  8
28  32  8
29  33  8
30  33  8
31  34  8
32  34  8
38  39  8
50  51  8
50  52  8
51  53  8
53  54  8
57  58  8

$$$$
