121304586
  -OEChem-09292322442D

 66 70  0     1  0  0  0  0  0999 V2000
    8.2800   -7.0319    0.0000 F   0  0  0  0  0  0  0  0  0  0  0  0
    9.6460   -6.6659    0.0000 F   0  0  0  0  0  0  0  0  0  0  0  0
    9.2800   -5.2999    0.0000 F   0  0  0  0  0  0  0  0  0  0  0  0
    2.8660    7.0319    0.0000 O   0  0  0  0  0  0  0  0  0  0  0  0
    4.3159   -1.7610    0.0000 N   0  0  3  0  0  0  0  0  0  0  0  0
    3.6750    3.4442    0.0000 N   0  0  0  0  0  0  0  0  0  0  0  0
    2.3660    2.4931    0.0000 N   0  0  0  0  0  0  0  0  0  0  0  0
    2.0570    3.4442    0.0000 N   0  0  0  0  0  0  0  0  0  0  0  0
    4.8159   -3.2999    0.0000 C   0  0  1  0  0  0  0  0  0  0  0  0
    5.3159   -4.1659    0.0000 C   0  0  2  0  0  0  0  0  0  0  0  0
    4.3159   -4.1659    0.0000 C   0  0  0  0  0  0  0  0  0  0  0  0
    5.6249   -2.7121    0.0000 C   0  0  0  0  0  0  0  0  0  0  0  0
    4.0069   -2.7121    0.0000 C   0  0  0  0  0  0  0  0  0  0  0  0
    5.3159   -1.7610    0.0000 C   0  0  0  0  0  0  0  0  0  0  0  0
    6.1819   -4.6659    0.0000 C   0  0  0  0  0  0  0  0  0  0  0  0
    3.7281   -0.9520    0.0000 C   0  0  0  0  0  0  0  0  0  0  0  0
    7.0480   -4.1659    0.0000 C   0  0  0  0  0  0  0  0  0  0  0  0
    6.1819   -5.6659    0.0000 C   0  0  0  0  0  0  0  0  0  0  0  0
    4.1349   -0.0385    0.0000 C   0  0  0  0  0  0  0  0  0  0  0  0
    7.9140   -4.6659    0.0000 C   0  0  0  0  0  0  0  0  0  0  0  0
    7.0480   -6.1659    0.0000 C   0  0  0  0  0  0  0  0  0  0  0  0
    3.5471    0.7705    0.0000 C   0  0  0  0  0  0  0  0  0  0  0  0
    7.9140   -5.6659    0.0000 C   0  0  0  0  0  0  0  0  0  0  0  0
    3.9538    1.6841    0.0000 C   0  0  0  0  0  0  0  0  0  0  0  0
    8.7800   -6.1659    0.0000 C   0  0  0  0  0  0  0  0  0  0  0  0
    3.3660    2.4931    0.0000 C   0  0  0  0  0  0  0  0  0  0  0  0
    2.8660    5.0319    0.0000 C   0  0  0  0  0  0  0  0  0  0  0  0
    2.8660    4.0319    0.0000 C   0  0  0  0  0  0  0  0  0  0  0  0
    2.0000    5.5319    0.0000 C   0  0  0  0  0  0  0  0  0  0  0  0
    3.7320    5.5319    0.0000 C   0  0  0  0  0  0  0  0  0  0  0  0
    2.0000    6.5319    0.0000 C   0  0  0  0  0  0  0  0  0  0  0  0
    3.7320    6.5319    0.0000 C   0  0  0  0  0  0  0  0  0  0  0  0
    4.6261    3.7532    0.0000 C   0  0  0  0  0  0  0  0  0  0  0  0
    5.1554   -4.7648    0.0000 H   0  0  0  0  0  0  0  0  0  0  0  0
    3.7333   -3.9539    0.0000 H   0  0  0  0  0  0  0  0  0  0  0  0
    4.2082   -4.7765    0.0000 H   0  0  0  0  0  0  0  0  0  0  0  0
    5.9349   -3.2490    0.0000 H   0  0  0  0  0  0  0  0  0  0  0  0
    6.1913   -2.4599    0.0000 H   0  0  0  0  0  0  0  0  0  0  0  0
    3.4405   -2.4599    0.0000 H   0  0  0  0  0  0  0  0  0  0  0  0
    3.6969   -3.2490    0.0000 H   0  0  0  0  0  0  0  0  0  0  0  0
    5.9224   -1.6321    0.0000 H   0  0  0  0  0  0  0  0  0  0  0  0
    5.2511   -1.1444    0.0000 H   0  0  0  0  0  0  0  0  0  0  0  0
    3.2141   -0.6053    0.0000 H   0  0  0  0  0  0  0  0  0  0  0  0
    3.2974   -1.3980    0.0000 H   0  0  0  0  0  0  0  0  0  0  0  0
    7.0480   -3.5459    0.0000 H   0  0  0  0  0  0  0  0  0  0  0  0
    5.6450   -5.9759    0.0000 H   0  0  0  0  0  0  0  0  0  0  0  0
    4.6489   -0.3852    0.0000 H   0  0  0  0  0  0  0  0  0  0  0  0
    4.5656    0.4075    0.0000 H   0  0  0  0  0  0  0  0  0  0  0  0
    8.4509   -4.3559    0.0000 H   0  0  0  0  0  0  0  0  0  0  0  0
    7.0480   -6.7859    0.0000 H   0  0  0  0  0  0  0  0  0  0  0  0
    3.0331    1.1172    0.0000 H   0  0  0  0  0  0  0  0  0  0  0  0
    3.1164    0.3245    0.0000 H   0  0  0  0  0  0  0  0  0  0  0  0
    4.4678    1.3374    0.0000 H   0  0  0  0  0  0  0  0  0  0  0  0
    4.3845    2.1301    0.0000 H   0  0  0  0  0  0  0  0  0  0  0  0
    3.4030    4.7219    0.0000 H   0  0  0  0  0  0  0  0  0  0  0  0
    1.3894    5.6396    0.0000 H   0  0  0  0  0  0  0  0  0  0  0  0
    1.7880    4.9493    0.0000 H   0  0  0  0  0  0  0  0  0  0  0  0
    3.9441    4.9493    0.0000 H   0  0  0  0  0  0  0  0  0  0  0  0
    4.3426    5.6396    0.0000 H   0  0  0  0  0  0  0  0  0  0  0  0
    1.7880    7.1146    0.0000 H   0  0  0  0  0  0  0  0  0  0  0  0
    1.3894    6.4243    0.0000 H   0  0  0  0  0  0  0  0  0  0  0  0
    4.3426    6.4243    0.0000 H   0  0  0  0  0  0  0  0  0  0  0  0
    3.9441    7.1146    0.0000 H   0  0  0  0  0  0  0  0  0  0  0  0
    4.8177    3.1635    0.0000 H   0  0  0  0  0  0  0  0  0  0  0  0
    5.2158    3.9448    0.0000 H   0  0  0  0  0  0  0  0  0  0  0  0
    4.4345    4.3428    0.0000 H   0  0  0  0  0  0  0  0  0  0  0  0
  1 25  1  0  0  0  0
  2 25  1  0  0  0  0
  3 25  1  0  0  0  0
  4 31  1  0  0  0  0
  4 32  1  0  0  0  0
  5 13  1  0  0  0  0
  5 14  1  0  0  0  0
  5 16  1  0  0  0  0
  6 26  1  0  0  0  0
  6 28  1  0  0  0  0
  6 33  1  0  0  0  0
  7  8  1  0  0  0  0
  7 26  2  0  0  0  0
  8 28  2  0  0  0  0
  9 10  1  0  0  0  0
  9 11  1  1  0  0  0
  9 12  1  0  0  0  0
  9 13  1  0  0  0  0
 10 11  1  0  0  0  0
 10 15  1  1  0  0  0
 10 34  1  0  0  0  0
 11 35  1  0  0  0  0
 11 36  1  0  0  0  0
 12 14  1  0  0  0  0
 12 37  1  0  0  0  0
 12 38  1  0  0  0  0
 13 39  1  0  0  0  0
 13 40  1  0  0  0  0
 14 41  1  0  0  0  0
 14 42  1  0  0  0  0
 15 17  2  0  0  0  0
 15 18  1  0  0  0  0
 16 19  1  0  0  0  0
 16 43  1  0  0  0  0
 16 44  1  0  0  0  0
 17 20  1  0  0  0  0
 17 45  1  0  0  0  0
 18 21  2  0  0  0  0
 18 46  1  0  0  0  0
 19 22  1  0  0  0  0
 19 47  1  0  0  0  0
 19 48  1  0  0  0  0
 20 23  2  0  0  0  0
 20 49  1  0  0  0  0
 21 23  1  0  0  0  0
 21 50  1  0  0  0  0
 22 24  1  0  0  0  0
 22 51  1  0  0  0  0
 22 52  1  0  0  0  0
 23 25  1  0  0  0  0
 24 26  1  0  0  0  0
 24 53  1  0  0  0  0
 24 54  1  0  0  0  0
 27 28  1  0  0  0  0
 27 29  1  0  0  0  0
 27 30  1  0  0  0  0
 27 55  1  0  0  0  0
 29 31  1  0  0  0  0
 29 56  1  0  0  0  0
 29 57  1  0  0  0  0
 30 32  1  0  0  0  0
 30 58  1  0  0  0  0
 30 59  1  0  0  0  0
 31 60  1  0  0  0  0
 31 61  1  0  0  0  0
 32 62  1  0  0  0  0
 32 63  1  0  0  0  0
 33 64  1  0  0  0  0
 33 65  1  0  0  0  0
 33 66  1  0  0  0  0
M  END
> <PUBCHEM_COMPOUND_CID>
121304586

> <PUBCHEM_COMPOUND_CANONICALIZED>
1

> <PUBCHEM_CACTVS_COMPLEXITY>
650

> <PUBCHEM_CACTVS_HBOND_ACCEPTOR>
7

> <PUBCHEM_CACTVS_HBOND_DONOR>
0

> <PUBCHEM_CACTVS_ROTATABLE_BOND>
7

> <PUBCHEM_CACTVS_SUBSKEYS>
AAADcfB7oYAAAAAAAAAAAAAAGAAAAWLAAAA0QAAAAAAAAAABwAAAHwAIAAAADwDhmxYzEIcMFACiAiJiJAASgAsgAKAdyAA4AIiIKCKAmRCGIAAkiAKIiAewgMAPwAAAAAAAAACAAAAAAAAAAAAAAAAAAA==

> <PUBCHEM_IUPAC_OPENEYE_NAME>
(2R,3R)-5-[4-(4-methyl-5-tetrahydropyran-4-yl-1,2,4-triazol-3-yl)butyl]-2-[4-(trifluoromethyl)phenyl]-5-azaspiro[2.4]heptane

> <PUBCHEM_IUPAC_CAS_NAME>
(2R,3R)-5-[4-[4-methyl-5-(4-oxanyl)-1,2,4-triazol-3-yl]butyl]-2-[4-(trifluoromethyl)phenyl]-5-azaspiro[2.4]heptane

> <PUBCHEM_IUPAC_NAME_MARKUP>
(2<I>R</I>,3<I>R</I>)-5-[4-[4-methyl-5-(oxan-4-yl)-1,2,4-triazol-3-yl]butyl]-2-[4-(trifluoromethyl)phenyl]-5-azaspiro[2.4]heptane

> <PUBCHEM_IUPAC_NAME>
(2R,3R)-5-[4-[4-methyl-5-(oxan-4-yl)-1,2,4-triazol-3-yl]butyl]-2-[4-(trifluoromethyl)phenyl]-5-azaspiro[2.4]heptane

> <PUBCHEM_IUPAC_SYSTEMATIC_NAME>
(2R,3R)-5-[4-[4-methyl-5-(oxan-4-yl)-1,2,4-triazol-3-yl]butyl]-2-[4-(trifluoromethyl)phenyl]-5-azaspiro[2.4]heptane

> <PUBCHEM_IUPAC_TRADITIONAL_NAME>
(2R,3R)-5-[4-(4-methyl-5-tetrahydropyran-4-yl-1,2,4-triazol-3-yl)butyl]-2-[4-(trifluoromethyl)phenyl]-5-azaspiro[2.4]heptane

> <PUBCHEM_IUPAC_INCHI>
InChI=1S/C25H33F3N4O/c1-31-22(29-30-23(31)19-9-14-33-15-10-19)4-2-3-12-32-13-11-24(17-32)16-21(24)18-5-7-20(8-6-18)25(26,27)28/h5-8,19,21H,2-4,9-17H2,1H3/t21-,24-/m1/s1

> <PUBCHEM_IUPAC_INCHIKEY>
BZBZJSODGWVABP-ZJSXRUAMSA-N

> <PUBCHEM_XLOGP3_AA>
3.9

> <PUBCHEM_EXACT_MASS>
462.26064618

> <PUBCHEM_MOLECULAR_FORMULA>
C25H33F3N4O

> <PUBCHEM_MOLECULAR_WEIGHT>
462.6

> <PUBCHEM_OPENEYE_CAN_SMILES>
CN1C(=NN=C1C2CCOCC2)CCCCN3CCC4(C3)CC4C5=CC=C(C=C5)C(F)(F)F

> <PUBCHEM_OPENEYE_ISO_SMILES>
CN1C(=NN=C1C2CCOCC2)CCCCN3CC[C@]4(C3)C[C@@H]4C5=CC=C(C=C5)C(F)(F)F

> <PUBCHEM_CACTVS_TPSA>
43.2

> <PUBCHEM_MONOISOTOPIC_WEIGHT>
462.26064618

> <PUBCHEM_TOTAL_CHARGE>
0

> <PUBCHEM_HEAVY_ATOM_COUNT>
33

> <PUBCHEM_ATOM_DEF_STEREO_COUNT>
2

> <PUBCHEM_ATOM_UDEF_STEREO_COUNT>
0

> <PUBCHEM_BOND_DEF_STEREO_COUNT>
0

> <PUBCHEM_BOND_UDEF_STEREO_COUNT>
0

> <PUBCHEM_ISOTOPIC_ATOM_COUNT>
0

> <PUBCHEM_COMPONENT_COUNT>
1

> <PUBCHEM_CACTVS_TAUTO_COUNT>
-1

> <PUBCHEM_COORDINATE_TYPE>
1
5
255

> <PUBCHEM_BONDANNOTATIONS>
10  15  5
15  17  8
15  18  8
17  20  8
18  21  8
20  23  8
21  23  8
6  26  8
6  28  8
7  26  8
7  8  8
8  28  8
9  11  5

$$$$
