44273908
  -OEChem-09292322202D

 55 57  0     0  0  0  0  0  0999 V2000
    2.8660   -5.8660    0.0000 Cl  0  0  0  0  0  0  0  0  0  0  0  0
    5.4641    2.6340    0.0000 O   0  0  0  0  0  0  0  0  0  0  0  0
    2.8660    0.1340    0.0000 N   0  0  0  0  0  0  0  0  0  0  0  0
    3.7320    2.6340    0.0000 N   0  0  0  0  0  0  0  0  0  0  0  0
    2.8660   -1.8660    0.0000 N   0  0  0  0  0  0  0  0  0  0  0  0
    4.5981    4.1340    0.0000 C   0  0  0  0  0  0  0  0  0  0  0  0
    5.0981    5.0000    0.0000 C   0  0  0  0  0  0  0  0  0  0  0  0
    3.5981    4.1340    0.0000 C   0  0  0  0  0  0  0  0  0  0  0  0
    4.5981    5.8660    0.0000 C   0  0  0  0  0  0  0  0  0  0  0  0
    3.0981    5.0000    0.0000 C   0  0  0  0  0  0  0  0  0  0  0  0
    3.5981    5.8660    0.0000 C   0  0  0  0  0  0  0  0  0  0  0  0
    5.4641    3.6340    0.0000 C   0  0  0  0  0  0  0  0  0  0  0  0
    4.5981    3.1340    0.0000 C   0  0  0  0  0  0  0  0  0  0  0  0
    2.8660    1.1340    0.0000 C   0  0  0  0  0  0  0  0  0  0  0  0
    3.7320    1.6340    0.0000 C   0  0  0  0  0  0  0  0  0  0  0  0
    2.0000   -0.3660    0.0000 C   0  0  0  0  0  0  0  0  0  0  0  0
    3.7320   -0.3660    0.0000 C   0  0  0  0  0  0  0  0  0  0  0  0
    2.0000   -1.3660    0.0000 C   0  0  0  0  0  0  0  0  0  0  0  0
    3.7320   -1.3660    0.0000 C   0  0  0  0  0  0  0  0  0  0  0  0
    2.8660   -2.8660    0.0000 C   0  0  0  0  0  0  0  0  0  0  0  0
    3.7320   -3.3660    0.0000 C   0  0  0  0  0  0  0  0  0  0  0  0
    2.0000   -3.3660    0.0000 C   0  0  0  0  0  0  0  0  0  0  0  0
    3.7320   -4.3660    0.0000 C   0  0  0  0  0  0  0  0  0  0  0  0
    2.0000   -4.3660    0.0000 C   0  0  0  0  0  0  0  0  0  0  0  0
    2.8660   -4.8660    0.0000 C   0  0  0  0  0  0  0  0  0  0  0  0
    5.5730    4.6015    0.0000 H   0  0  0  0  0  0  0  0  0  0  0  0
    5.5730    5.3985    0.0000 H   0  0  0  0  0  0  0  0  0  0  0  0
    3.0155    3.9219    0.0000 H   0  0  0  0  0  0  0  0  0  0  0  0
    3.7057    3.5234    0.0000 H   0  0  0  0  0  0  0  0  0  0  0  0
    5.1807    6.0781    0.0000 H   0  0  0  0  0  0  0  0  0  0  0  0
    4.4904    6.4766    0.0000 H   0  0  0  0  0  0  0  0  0  0  0  0
    2.6231    5.3985    0.0000 H   0  0  0  0  0  0  0  0  0  0  0  0
    2.6231    4.6015    0.0000 H   0  0  0  0  0  0  0  0  0  0  0  0
    3.7057    6.4766    0.0000 H   0  0  0  0  0  0  0  0  0  0  0  0
    3.0155    6.0781    0.0000 H   0  0  0  0  0  0  0  0  0  0  0  0
    5.1541    3.0970    0.0000 H   0  0  0  0  0  0  0  0  0  0  0  0
    6.0010    3.3240    0.0000 H   0  0  0  0  0  0  0  0  0  0  0  0
    5.7741    4.1709    0.0000 H   0  0  0  0  0  0  0  0  0  0  0  0
    2.6540    1.7166    0.0000 H   0  0  0  0  0  0  0  0  0  0  0  0
    2.2554    1.0263    0.0000 H   0  0  0  0  0  0  0  0  0  0  0  0
    3.1951    2.9440    0.0000 H   0  0  0  0  0  0  0  0  0  0  0  0
    1.7880    0.2166    0.0000 H   0  0  0  0  0  0  0  0  0  0  0  0
    1.3894   -0.4737    0.0000 H   0  0  0  0  0  0  0  0  0  0  0  0
    4.3426   -0.4737    0.0000 H   0  0  0  0  0  0  0  0  0  0  0  0
    3.9441    0.2166    0.0000 H   0  0  0  0  0  0  0  0  0  0  0  0
    3.9441    1.0514    0.0000 H   0  0  0  0  0  0  0  0  0  0  0  0
    4.3426    1.7416    0.0000 H   0  0  0  0  0  0  0  0  0  0  0  0
    1.3894   -1.2584    0.0000 H   0  0  0  0  0  0  0  0  0  0  0  0
    1.7880   -1.9486    0.0000 H   0  0  0  0  0  0  0  0  0  0  0  0
    3.9441   -1.9486    0.0000 H   0  0  0  0  0  0  0  0  0  0  0  0
    4.3426   -1.2584    0.0000 H   0  0  0  0  0  0  0  0  0  0  0  0
    4.2690   -3.0560    0.0000 H   0  0  0  0  0  0  0  0  0  0  0  0
    1.4631   -3.0560    0.0000 H   0  0  0  0  0  0  0  0  0  0  0  0
    4.2690   -4.6760    0.0000 H   0  0  0  0  0  0  0  0  0  0  0  0
    1.4631   -4.6760    0.0000 H   0  0  0  0  0  0  0  0  0  0  0  0
  1 25  1  0  0  0  0
  2 13  2  0  0  0  0
  3 14  1  0  0  0  0
  3 16  1  0  0  0  0
  3 17  1  0  0  0  0
  4 13  1  0  0  0  0
  4 15  1  0  0  0  0
  4 41  1  0  0  0  0
  5 18  1  0  0  0  0
  5 19  1  0  0  0  0
  5 20  1  0  0  0  0
  6  7  1  0  0  0  0
  6  8  1  0  0  0  0
  6 12  1  0  0  0  0
  6 13  1  0  0  0  0
  7  9  1  0  0  0  0
  7 26  1  0  0  0  0
  7 27  1  0  0  0  0
  8 10  1  0  0  0  0
  8 28  1  0  0  0  0
  8 29  1  0  0  0  0
  9 11  1  0  0  0  0
  9 30  1  0  0  0  0
  9 31  1  0  0  0  0
 10 11  1  0  0  0  0
 10 32  1  0  0  0  0
 10 33  1  0  0  0  0
 11 34  1  0  0  0  0
 11 35  1  0  0  0  0
 12 36  1  0  0  0  0
 12 37  1  0  0  0  0
 12 38  1  0  0  0  0
 14 15  1  0  0  0  0
 14 39  1  0  0  0  0
 14 40  1  0  0  0  0
 15 46  1  0  0  0  0
 15 47  1  0  0  0  0
 16 18  1  0  0  0  0
 16 42  1  0  0  0  0
 16 43  1  0  0  0  0
 17 19  1  0  0  0  0
 17 44  1  0  0  0  0
 17 45  1  0  0  0  0
 18 48  1  0  0  0  0
 18 49  1  0  0  0  0
 19 50  1  0  0  0  0
 19 51  1  0  0  0  0
 20 21  2  0  0  0  0
 20 22  1  0  0  0  0
 21 23  1  0  0  0  0
 21 52  1  0  0  0  0
 22 24  2  0  0  0  0
 22 53  1  0  0  0  0
 23 25  2  0  0  0  0
 23 54  1  0  0  0  0
 24 25  1  0  0  0  0
 24 55  1  0  0  0  0
M  END
> <PUBCHEM_COMPOUND_CID>
44273908

> <PUBCHEM_COMPOUND_CANONICALIZED>
1

> <PUBCHEM_CACTVS_COMPLEXITY>
423

> <PUBCHEM_CACTVS_HBOND_ACCEPTOR>
3

> <PUBCHEM_CACTVS_HBOND_DONOR>
1

> <PUBCHEM_CACTVS_ROTATABLE_BOND>
5

> <PUBCHEM_CACTVS_SUBSKEYS>
AAADceB7IAAEAAAAAAAAAAAAAAAAAAAAAAA8YIAAAAAAAAABAAAAHgIQAAAADgrBkCQywIPAAACIACVSUACCAAAhBwAIiIEIZogIYDLBk5GUIAhglgDIyAcYiECPAABAAAAAAAAAAIAAAAAAAAAAAAAAAA==

> <PUBCHEM_IUPAC_OPENEYE_NAME>
N-[2-[4-(4-chlorophenyl)piperazin-1-yl]ethyl]-1-methyl-cyclohexanecarboxamide

> <PUBCHEM_IUPAC_CAS_NAME>
N-[2-[4-(4-chlorophenyl)-1-piperazinyl]ethyl]-1-methyl-1-cyclohexanecarboxamide

> <PUBCHEM_IUPAC_NAME_MARKUP>
<I>N</I>-[2-[4-(4-chlorophenyl)piperazin-1-yl]ethyl]-1-methylcyclohexane-1-carboxamide

> <PUBCHEM_IUPAC_NAME>
N-[2-[4-(4-chlorophenyl)piperazin-1-yl]ethyl]-1-methylcyclohexane-1-carboxamide

> <PUBCHEM_IUPAC_SYSTEMATIC_NAME>
N-[2-[4-(4-chlorophenyl)piperazin-1-yl]ethyl]-1-methyl-cyclohexane-1-carboxamide

> <PUBCHEM_IUPAC_TRADITIONAL_NAME>
N-[2-[4-(4-chlorophenyl)piperazino]ethyl]-1-methyl-cyclohexanecarboxamide

> <PUBCHEM_IUPAC_INCHI>
InChI=1S/C20H30ClN3O/c1-20(9-3-2-4-10-20)19(25)22-11-12-23-13-15-24(16-14-23)18-7-5-17(21)6-8-18/h5-8H,2-4,9-16H2,1H3,(H,22,25)

> <PUBCHEM_IUPAC_INCHIKEY>
BSOHQWLHOBZOOU-UHFFFAOYSA-N

> <PUBCHEM_XLOGP3_AA>
4.2

> <PUBCHEM_EXACT_MASS>
363.2077403

> <PUBCHEM_MOLECULAR_FORMULA>
C20H30ClN3O

> <PUBCHEM_MOLECULAR_WEIGHT>
363.9

> <PUBCHEM_OPENEYE_CAN_SMILES>
CC1(CCCCC1)C(=O)NCCN2CCN(CC2)C3=CC=C(C=C3)Cl

> <PUBCHEM_OPENEYE_ISO_SMILES>
CC1(CCCCC1)C(=O)NCCN2CCN(CC2)C3=CC=C(C=C3)Cl

> <PUBCHEM_CACTVS_TPSA>
35.6

> <PUBCHEM_MONOISOTOPIC_WEIGHT>
363.2077403

> <PUBCHEM_TOTAL_CHARGE>
0

> <PUBCHEM_HEAVY_ATOM_COUNT>
25

> <PUBCHEM_ATOM_DEF_STEREO_COUNT>
0

> <PUBCHEM_ATOM_UDEF_STEREO_COUNT>
0

> <PUBCHEM_BOND_DEF_STEREO_COUNT>
0

> <PUBCHEM_BOND_UDEF_STEREO_COUNT>
0

> <PUBCHEM_ISOTOPIC_ATOM_COUNT>
0

> <PUBCHEM_COMPONENT_COUNT>
1

> <PUBCHEM_CACTVS_TAUTO_COUNT>
-1

> <PUBCHEM_COORDINATE_TYPE>
1
5
255

> <PUBCHEM_BONDANNOTATIONS>
20  21  8
20  22  8
21  23  8
22  24  8
23  25  8
24  25  8

$$$$
