44276412
  -OEChem-09292322222D

 39 42  0     1  0  0  0  0  0999 V2000
    3.6737   -1.8999    0.0000 O   0  0  0  0  0  0  0  0  0  0  0  0
    5.4770   -2.9596    0.0000 O   0  0  0  0  0  0  0  0  0  0  0  0
    6.3961    2.7371    0.0000 N   0  0  0  0  0  0  0  0  0  0  0  0
    3.7702    3.2717    0.0000 N   0  0  0  0  0  0  0  0  0  0  0  0
    6.3961    1.7371    0.0000 C   0  0  1  0  0  0  0  0  0  0  0  0
    5.5301    1.2371    0.0000 C   0  0  1  0  0  0  0  0  0  0  0  0
    7.3062    1.2302    0.0000 C   0  0  0  0  0  0  0  0  0  0  0  0
    5.5141    0.1956    0.0000 C   0  0  0  0  0  0  0  0  0  0  0  0
    7.3142    0.1886    0.0000 C   0  0  0  0  0  0  0  0  0  0  0  0
    4.6641    1.7371    0.0000 C   0  0  0  0  0  0  0  0  0  0  0  0
    6.4121   -0.3322    0.0000 C   0  0  0  0  0  0  0  0  0  0  0  0
    5.5301    3.2371    0.0000 C   0  0  0  0  0  0  0  0  0  0  0  0
    4.6641    2.7371    0.0000 C   0  0  0  0  0  0  0  0  0  0  0  0
    4.5621   -0.3251    0.0000 C   0  0  0  0  0  0  0  0  0  0  0  0
    3.7702    1.2024    0.0000 C   0  0  0  0  0  0  0  0  0  0  0  0
    6.4205   -1.4172    0.0000 C   0  0  0  0  0  0  0  0  0  0  0  0
    4.5454   -1.4099    0.0000 C   0  0  0  0  0  0  0  0  0  0  0  0
    5.4808   -1.9597    0.0000 C   0  0  0  0  0  0  0  0  0  0  0  0
    2.8641    1.7162    0.0000 C   0  0  0  0  0  0  0  0  0  0  0  0
    2.8641    2.7579    0.0000 C   0  0  0  0  0  0  0  0  0  0  0  0
    2.0000    3.2612    0.0000 C   0  0  0  0  0  0  0  0  0  0  0  0
    7.1290    2.1677    0.0000 H   0  0  0  0  0  0  0  0  0  0  0  0
    4.7908    0.8177    0.0000 H   0  0  0  0  0  0  0  0  0  0  0  0
    7.9178    1.1288    0.0000 H   0  0  0  0  0  0  0  0  0  0  0  0
    7.5107    1.8155    0.0000 H   0  0  0  0  0  0  0  0  0  0  0  0
    7.5277   -0.3934    0.0000 H   0  0  0  0  0  0  0  0  0  0  0  0
    7.9242    0.2994    0.0000 H   0  0  0  0  0  0  0  0  0  0  0  0
    6.9331    3.0471    0.0000 H   0  0  0  0  0  0  0  0  0  0  0  0
    5.9286    3.7120    0.0000 H   0  0  0  0  0  0  0  0  0  0  0  0
    5.1316    3.7120    0.0000 H   0  0  0  0  0  0  0  0  0  0  0  0
    4.0313   -0.0048    0.0000 H   0  0  0  0  0  0  0  0  0  0  0  0
    3.7773    0.5824    0.0000 H   0  0  0  0  0  0  0  0  0  0  0  0
    6.9586   -1.7251    0.0000 H   0  0  0  0  0  0  0  0  0  0  0  0
    2.3284    1.4042    0.0000 H   0  0  0  0  0  0  0  0  0  0  0  0
    2.3121    3.7970    0.0000 H   0  0  0  0  0  0  0  0  0  0  0  0
    1.4643    3.5733    0.0000 H   0  0  0  0  0  0  0  0  0  0  0  0
    1.6879    2.7255    0.0000 H   0  0  0  0  0  0  0  0  0  0  0  0
    3.6665   -2.5198    0.0000 H   0  0  0  0  0  0  0  0  0  0  0  0
    6.0127   -3.2717    0.0000 H   0  0  0  0  0  0  0  0  0  0  0  0
  1 17  1  0  0  0  0
  1 38  1  0  0  0  0
  2 18  1  0  0  0  0
  2 39  1  0  0  0  0
  3  5  1  0  0  0  0
  3 12  1  0  0  0  0
  3 28  1  0  0  0  0
  4 13  1  0  0  0  0
  4 20  2  0  0  0  0
  5  6  1  0  0  0  0
  5  7  1  0  0  0  0
  5 22  1  1  0  0  0
  6  8  1  0  0  0  0
  6 10  1  0  0  0  0
  6 23  1  6  0  0  0
  7  9  1  0  0  0  0
  7 24  1  0  0  0  0
  7 25  1  0  0  0  0
  8 11  1  0  0  0  0
  8 14  2  0  0  0  0
  9 11  1  0  0  0  0
  9 26  1  0  0  0  0
  9 27  1  0  0  0  0
 10 13  2  0  0  0  0
 10 15  1  0  0  0  0
 11 16  2  0  0  0  0
 12 13  1  0  0  0  0
 12 29  1  0  0  0  0
 12 30  1  0  0  0  0
 14 17  1  0  0  0  0
 14 31  1  0  0  0  0
 15 19  2  0  0  0  0
 15 32  1  0  0  0  0
 16 18  1  0  0  0  0
 16 33  1  0  0  0  0
 17 18  2  0  0  0  0
 19 20  1  0  0  0  0
 19 34  1  0  0  0  0
 20 21  1  0  0  0  0
 21 35  1  0  0  0  0
 21 36  1  0  0  0  0
 21 37  1  0  0  0  0
M  END
> <PUBCHEM_COMPOUND_CID>
44276412

> <PUBCHEM_COMPOUND_CANONICALIZED>
1

> <PUBCHEM_CACTVS_COMPLEXITY>
391

> <PUBCHEM_CACTVS_HBOND_ACCEPTOR>
4

> <PUBCHEM_CACTVS_HBOND_DONOR>
3

> <PUBCHEM_CACTVS_ROTATABLE_BOND>
0

> <PUBCHEM_CACTVS_SUBSKEYS>
AAADceB7MAAAAAAAAAAAAAAAAAAAAAAAAAA8eIEAAAAAAADxwAAAHgAQCAAADSzBngQyhpLIEgCgAyRiRACCgCAhIiAImKA+7JgJZuLCkZOUcAlk0BHJ2AeQ0PMOoAABAAAQQABQAAaAACSAAAAAAAAAAA==

> <PUBCHEM_IUPAC_OPENEYE_NAME>
(6aR,12bS)-3-methyl-5,6,6a,7,8,12b-hexahydronaphtho[1,2-f][1,7]naphthyridine-10,11-diol

> <PUBCHEM_IUPAC_CAS_NAME>
(6aR,12bS)-3-methyl-5,6,6a,7,8,12b-hexahydronaphtho[1,2-f][1,7]naphthyridine-10,11-diol

> <PUBCHEM_IUPAC_NAME_MARKUP>
(6<I>a</I><I>R</I>,12<I>b</I><I>S</I>)-3-methyl-5,6,6<I>a</I>,7,8,12<I>b</I>-hexahydronaphtho[1,2-f][1,7]naphthyridine-10,11-diol

> <PUBCHEM_IUPAC_NAME>
(6aR,12bS)-3-methyl-5,6,6a,7,8,12b-hexahydronaphtho[1,2-f][1,7]naphthyridine-10,11-diol

> <PUBCHEM_IUPAC_SYSTEMATIC_NAME>
(6aR,12bS)-3-methyl-5,6,6a,7,8,12b-hexahydronaphtho[1,2-f][1,7]naphthyridine-10,11-diol

> <PUBCHEM_IUPAC_TRADITIONAL_NAME>
(6aR,12bS)-3-methyl-5,6,6a,7,8,12b-hexahydronaphtho[1,2-f][1,7]naphthyridine-10,11-diol

> <PUBCHEM_IUPAC_INCHI>
InChI=1S/C17H18N2O2/c1-9-2-4-11-14(19-9)8-18-13-5-3-10-6-15(20)16(21)7-12(10)17(11)13/h2,4,6-7,13,17-18,20-21H,3,5,8H2,1H3/t13-,17-/m1/s1

> <PUBCHEM_IUPAC_INCHIKEY>
QHOJNFIJAUDAJD-CXAGYDPISA-N

> <PUBCHEM_XLOGP3_AA>
1.9

> <PUBCHEM_EXACT_MASS>
282.136827821

> <PUBCHEM_MOLECULAR_FORMULA>
C17H18N2O2

> <PUBCHEM_MOLECULAR_WEIGHT>
282.34

> <PUBCHEM_OPENEYE_CAN_SMILES>
CC1=NC2=C(C=C1)C3C(CCC4=CC(=C(C=C34)O)O)NC2

> <PUBCHEM_OPENEYE_ISO_SMILES>
CC1=NC2=C(C=C1)[C@H]3[C@@H](CCC4=CC(=C(C=C34)O)O)NC2

> <PUBCHEM_CACTVS_TPSA>
65.4

> <PUBCHEM_MONOISOTOPIC_WEIGHT>
282.136827821

> <PUBCHEM_TOTAL_CHARGE>
0

> <PUBCHEM_HEAVY_ATOM_COUNT>
21

> <PUBCHEM_ATOM_DEF_STEREO_COUNT>
2

> <PUBCHEM_ATOM_UDEF_STEREO_COUNT>
0

> <PUBCHEM_BOND_DEF_STEREO_COUNT>
0

> <PUBCHEM_BOND_UDEF_STEREO_COUNT>
0

> <PUBCHEM_ISOTOPIC_ATOM_COUNT>
0

> <PUBCHEM_COMPONENT_COUNT>
1

> <PUBCHEM_CACTVS_TAUTO_COUNT>
-1

> <PUBCHEM_COORDINATE_TYPE>
1
5
255

> <PUBCHEM_BONDANNOTATIONS>
10  13  8
10  15  8
11  16  8
14  17  8
15  19  8
16  18  8
17  18  8
19  20  8
4  13  8
4  20  8
5  22  5
6  23  6
8  11  8
8  14  8

$$$$
