57345620
  -OEChem-09292322322D

 58 62  0     1  0  0  0  0  0999 V2000
   16.4401    0.5567    0.0000 Cl  0  0  0  0  0  0  0  0  0  0  0  0
    4.6783    3.0308    0.0000 S   0  0  0  0  0  0  0  0  0  0  0  0
   12.8429    0.8018    0.0000 O   0  0  0  0  0  0  0  0  0  0  0  0
    6.7619    3.0920    0.0000 O   0  0  0  0  0  0  0  0  0  0  0  0
    9.7619   -0.3720    0.0000 N   0  0  0  0  0  0  0  0  0  0  0  0
    4.6783    1.4213    0.0000 N   0  0  0  0  0  0  0  0  0  0  0  0
   11.2105   -1.7601    0.0000 C   0  0  2  0  0  0  0  0  0  0  0  0
   10.2445   -1.5013    0.0000 C   0  0  1  0  0  0  0  0  0  0  0  0
   12.5009   -0.1379    0.0000 C   0  0  0  0  0  0  0  0  0  0  0  0
   12.5707   -1.1355    0.0000 C   0  0  0  0  0  0  0  0  0  0  0  0
   11.5306    0.1040    0.0000 C   0  0  0  0  0  0  0  0  0  0  0  0
   10.9516   -3.2260    0.0000 C   0  0  0  0  0  0  0  0  0  0  0  0
    9.9857   -2.9672    0.0000 C   0  0  0  0  0  0  0  0  0  0  0  0
    9.2619    0.4940    0.0000 C   0  0  0  0  0  0  0  0  0  0  0  0
   13.4857    0.0357    0.0000 C   0  0  0  0  0  0  0  0  0  0  0  0
    8.2619    0.4940    0.0000 C   0  0  0  0  0  0  0  0  0  0  0  0
   13.8277    0.9754    0.0000 C   0  0  0  0  0  0  0  0  0  0  0  0
   14.1285   -0.7303    0.0000 C   0  0  0  0  0  0  0  0  0  0  0  0
    7.7619    1.3600    0.0000 C   0  0  0  0  0  0  0  0  0  0  0  0
    6.7619    1.3600    0.0000 C   0  0  0  0  0  0  0  0  0  0  0  0
   14.8125    1.1491    0.0000 C   0  0  0  0  0  0  0  0  0  0  0  0
   15.1133   -0.5567    0.0000 C   0  0  0  0  0  0  0  0  0  0  0  0
   15.4553    0.3830    0.0000 C   0  0  0  0  0  0  0  0  0  0  0  0
    6.2619    2.2260    0.0000 C   0  0  0  0  0  0  0  0  0  0  0  0
    5.2619    2.2260    0.0000 C   0  0  0  0  0  0  0  0  0  0  0  0
    3.7320    2.7260    0.0000 C   0  0  0  0  0  0  0  0  0  0  0  0
    3.7320    1.7260    0.0000 C   0  0  0  0  0  0  0  0  0  0  0  0
    2.8660    3.2260    0.0000 C   0  0  0  0  0  0  0  0  0  0  0  0
    2.8660    1.2260    0.0000 C   0  0  0  0  0  0  0  0  0  0  0  0
    2.0000    2.7260    0.0000 C   0  0  0  0  0  0  0  0  0  0  0  0
    2.0000    1.7260    0.0000 C   0  0  0  0  0  0  0  0  0  0  0  0
   12.0315   -1.9801    0.0000 H   0  0  0  0  0  0  0  0  0  0  0  0
    9.4235   -1.2813    0.0000 H   0  0  0  0  0  0  0  0  0  0  0  0
   12.7600   -1.7259    0.0000 H   0  0  0  0  0  0  0  0  0  0  0  0
   13.1795   -1.0184    0.0000 H   0  0  0  0  0  0  0  0  0  0  0  0
   11.7652    0.6779    0.0000 H   0  0  0  0  0  0  0  0  0  0  0  0
   10.9962    0.4184    0.0000 H   0  0  0  0  0  0  0  0  0  0  0  0
   10.8086   -3.8293    0.0000 H   0  0  0  0  0  0  0  0  0  0  0  0
   11.5588   -3.3515    0.0000 H   0  0  0  0  0  0  0  0  0  0  0  0
    9.3786   -2.8417    0.0000 H   0  0  0  0  0  0  0  0  0  0  0  0
    9.8427   -3.5705    0.0000 H   0  0  0  0  0  0  0  0  0  0  0  0
    9.8445    0.7060    0.0000 H   0  0  0  0  0  0  0  0  0  0  0  0
    9.1542    1.1046    0.0000 H   0  0  0  0  0  0  0  0  0  0  0  0
    7.6793    0.2819    0.0000 H   0  0  0  0  0  0  0  0  0  0  0  0
    8.3695   -0.1166    0.0000 H   0  0  0  0  0  0  0  0  0  0  0  0
   12.4444    1.2767    0.0000 H   0  0  0  0  0  0  0  0  0  0  0  0
   13.4292    1.4504    0.0000 H   0  0  0  0  0  0  0  0  0  0  0  0
   13.9165   -1.3129    0.0000 H   0  0  0  0  0  0  0  0  0  0  0  0
    8.3445    1.5720    0.0000 H   0  0  0  0  0  0  0  0  0  0  0  0
    7.6542    1.9706    0.0000 H   0  0  0  0  0  0  0  0  0  0  0  0
    6.1793    1.1480    0.0000 H   0  0  0  0  0  0  0  0  0  0  0  0
    6.8695    0.7494    0.0000 H   0  0  0  0  0  0  0  0  0  0  0  0
   15.0246    1.7317    0.0000 H   0  0  0  0  0  0  0  0  0  0  0  0
   15.5118   -1.0316    0.0000 H   0  0  0  0  0  0  0  0  0  0  0  0
    2.8660    3.8460    0.0000 H   0  0  0  0  0  0  0  0  0  0  0  0
    2.8660    0.6060    0.0000 H   0  0  0  0  0  0  0  0  0  0  0  0
    1.4631    3.0360    0.0000 H   0  0  0  0  0  0  0  0  0  0  0  0
    1.4631    1.4160    0.0000 H   0  0  0  0  0  0  0  0  0  0  0  0
  1 23  1  0  0  0  0
  2 25  1  0  0  0  0
  2 26  1  0  0  0  0
  3  9  1  0  0  0  0
  3 46  1  0  0  0  0
  4 24  2  0  0  0  0
  5  7  1  0  0  0  0
  5  8  1  0  0  0  0
  5 14  1  0  0  0  0
  6 25  2  0  0  0  0
  6 27  1  0  0  0  0
  7 10  1  0  0  0  0
  7 12  1  0  0  0  0
  7 32  1  1  0  0  0
  8 11  1  0  0  0  0
  8 13  1  0  0  0  0
  8 33  1  6  0  0  0
  9 10  1  0  0  0  0
  9 11  1  0  0  0  0
  9 15  1  0  0  0  0
 10 34  1  0  0  0  0
 10 35  1  0  0  0  0
 11 36  1  0  0  0  0
 11 37  1  0  0  0  0
 12 13  1  0  0  0  0
 12 38  1  0  0  0  0
 12 39  1  0  0  0  0
 13 40  1  0  0  0  0
 13 41  1  0  0  0  0
 14 16  1  0  0  0  0
 14 42  1  0  0  0  0
 14 43  1  0  0  0  0
 15 17  2  0  0  0  0
 15 18  1  0  0  0  0
 16 19  1  0  0  0  0
 16 44  1  0  0  0  0
 16 45  1  0  0  0  0
 17 21  1  0  0  0  0
 17 47  1  0  0  0  0
 18 22  2  0  0  0  0
 18 48  1  0  0  0  0
 19 20  1  0  0  0  0
 19 49  1  0  0  0  0
 19 50  1  0  0  0  0
 20 24  1  0  0  0  0
 20 51  1  0  0  0  0
 20 52  1  0  0  0  0
 21 23  2  0  0  0  0
 21 53  1  0  0  0  0
 22 23  1  0  0  0  0
 22 54  1  0  0  0  0
 24 25  1  0  0  0  0
 26 27  1  0  0  0  0
 26 28  2  0  0  0  0
 27 29  2  0  0  0  0
 28 30  1  0  0  0  0
 28 55  1  0  0  0  0
 29 31  1  0  0  0  0
 29 56  1  0  0  0  0
 30 31  2  0  0  0  0
 30 57  1  0  0  0  0
 31 58  1  0  0  0  0
M  END
> <PUBCHEM_COMPOUND_CID>
57345620

> <PUBCHEM_COMPOUND_CANONICALIZED>
1

> <PUBCHEM_CACTVS_COMPLEXITY>
627

> <PUBCHEM_CACTVS_HBOND_ACCEPTOR>
5

> <PUBCHEM_CACTVS_HBOND_DONOR>
1

> <PUBCHEM_CACTVS_ROTATABLE_BOND>
7

> <PUBCHEM_CACTVS_SUBSKEYS>
AAADceB7MABEAAAAAAAAAAAAAAAAAWLAAAA8YIAABgAAAFgB9AAAHgYACAAADG7B3iQwwbMIEgisA6RyRACD8KBjDzhImD24bpgIJrLhk7GEcAhmwAHo2AeYweAOhAAAAAAAAQAIAAAAAAACAAAAAAAAAA==

> <PUBCHEM_IUPAC_OPENEYE_NAME>
1-(1,3-benzothiazol-2-yl)-5-[(1S,5R)-3-(4-chlorophenyl)-3-hydroxy-8-azabicyclo[3.2.1]octan-8-yl]pentan-1-one

> <PUBCHEM_IUPAC_CAS_NAME>
1-(1,3-benzothiazol-2-yl)-5-[(1S,5R)-3-(4-chlorophenyl)-3-hydroxy-8-azabicyclo[3.2.1]octan-8-yl]-1-pentanone

> <PUBCHEM_IUPAC_NAME_MARKUP>
1-(1,3-benzothiazol-2-yl)-5-[(1<I>S</I>,5<I>R</I>)-3-(4-chlorophenyl)-3-hydroxy-8-azabicyclo[3.2.1]octan-8-yl]pentan-1-one

> <PUBCHEM_IUPAC_NAME>
1-(1,3-benzothiazol-2-yl)-5-[(1S,5R)-3-(4-chlorophenyl)-3-hydroxy-8-azabicyclo[3.2.1]octan-8-yl]pentan-1-one

> <PUBCHEM_IUPAC_SYSTEMATIC_NAME>
1-(1,3-benzothiazol-2-yl)-5-[(1S,5R)-3-(4-chlorophenyl)-3-oxidanyl-8-azabicyclo[3.2.1]octan-8-yl]pentan-1-one

> <PUBCHEM_IUPAC_TRADITIONAL_NAME>
1-(1,3-benzothiazol-2-yl)-5-[(1S,5R)-3-(4-chlorophenyl)-3-hydroxy-8-azabicyclo[3.2.1]octan-8-yl]pentan-1-one

> <PUBCHEM_IUPAC_INCHI>
InChI=1S/C25H27ClN2O2S/c26-18-10-8-17(9-11-18)25(30)15-19-12-13-20(16-25)28(19)14-4-3-6-22(29)24-27-21-5-1-2-7-23(21)31-24/h1-2,5,7-11,19-20,30H,3-4,6,12-16H2/t19-,20+,25?

> <PUBCHEM_IUPAC_INCHIKEY>
SGGMEYGWAJEGIP-WPUZRXDDSA-N

> <PUBCHEM_XLOGP3_AA>
5.5

> <PUBCHEM_EXACT_MASS>
454.1481770

> <PUBCHEM_MOLECULAR_FORMULA>
C25H27ClN2O2S

> <PUBCHEM_MOLECULAR_WEIGHT>
455.0

> <PUBCHEM_OPENEYE_CAN_SMILES>
C1CC2CC(CC1N2CCCCC(=O)C3=NC4=CC=CC=C4S3)(C5=CC=C(C=C5)Cl)O

> <PUBCHEM_OPENEYE_ISO_SMILES>
C1C[C@H]2CC(C[C@@H]1N2CCCCC(=O)C3=NC4=CC=CC=C4S3)(C5=CC=C(C=C5)Cl)O

> <PUBCHEM_CACTVS_TPSA>
81.7

> <PUBCHEM_MONOISOTOPIC_WEIGHT>
454.1481770

> <PUBCHEM_TOTAL_CHARGE>
0

> <PUBCHEM_HEAVY_ATOM_COUNT>
31

> <PUBCHEM_ATOM_DEF_STEREO_COUNT>
2

> <PUBCHEM_ATOM_UDEF_STEREO_COUNT>
0

> <PUBCHEM_BOND_DEF_STEREO_COUNT>
0

> <PUBCHEM_BOND_UDEF_STEREO_COUNT>
0

> <PUBCHEM_ISOTOPIC_ATOM_COUNT>
0

> <PUBCHEM_COMPONENT_COUNT>
1

> <PUBCHEM_CACTVS_TAUTO_COUNT>
-1

> <PUBCHEM_COORDINATE_TYPE>
1
5
255

> <PUBCHEM_BONDANNOTATIONS>
15  17  8
15  18  8
17  21  8
18  22  8
2  25  8
2  26  8
21  23  8
22  23  8
26  27  8
26  28  8
27  29  8
28  30  8
29  31  8
30  31  8
6  25  8
6  27  8
7  32  5
8  33  6

$$$$
