44309509
  -OEChem-09292322042D

 56 59  0     0  0  0  0  0  0999 V2000
   13.3263   -2.0173    0.0000 Cl  0  0  0  0  0  0  0  0  0  0  0  0
   15.0583   -3.0173    0.0000 Cl  0  0  0  0  0  0  0  0  0  0  0  0
    6.3981   -0.0173    0.0000 O   0  0  0  0  0  0  0  0  0  0  0  0
   11.5942    0.9827    0.0000 N   0  0  0  0  0  0  0  0  0  0  0  0
   13.3263   -0.0173    0.0000 N   0  0  0  0  0  0  0  0  0  0  0  0
    7.2641    1.4827    0.0000 N   0  0  0  0  0  0  0  0  0  0  0  0
    4.6660    0.9827    0.0000 N   0  0  0  0  0  0  0  0  0  0  0  0
    4.6660    2.9827    0.0000 N   0  0  0  0  0  0  0  0  0  0  0  0
   12.4603    1.4827    0.0000 C   0  0  0  0  0  0  0  0  0  0  0  0
   11.5942   -0.0173    0.0000 C   0  0  0  0  0  0  0  0  0  0  0  0
   13.3263    0.9827    0.0000 C   0  0  0  0  0  0  0  0  0  0  0  0
   12.4603   -0.5173    0.0000 C   0  0  0  0  0  0  0  0  0  0  0  0
   10.7282    1.4827    0.0000 C   0  0  0  0  0  0  0  0  0  0  0  0
    9.8622    0.9827    0.0000 C   0  0  0  0  0  0  0  0  0  0  0  0
   14.1923   -0.5173    0.0000 C   0  0  0  0  0  0  0  0  0  0  0  0
    8.9962    1.4827    0.0000 C   0  0  0  0  0  0  0  0  0  0  0  0
    8.1301    0.9827    0.0000 C   0  0  0  0  0  0  0  0  0  0  0  0
   14.1923   -1.5173    0.0000 C   0  0  0  0  0  0  0  0  0  0  0  0
   15.0583   -0.0173    0.0000 C   0  0  0  0  0  0  0  0  0  0  0  0
   15.0583   -2.0173    0.0000 C   0  0  0  0  0  0  0  0  0  0  0  0
   15.9244   -0.5173    0.0000 C   0  0  0  0  0  0  0  0  0  0  0  0
   15.9244   -1.5173    0.0000 C   0  0  0  0  0  0  0  0  0  0  0  0
    6.3981    0.9827    0.0000 C   0  0  0  0  0  0  0  0  0  0  0  0
    5.5321    1.4827    0.0000 C   0  0  0  0  0  0  0  0  0  0  0  0
    5.5321    2.4827    0.0000 C   0  0  0  0  0  0  0  0  0  0  0  0
    3.8000    1.4827    0.0000 C   0  0  0  0  0  0  0  0  0  0  0  0
    3.8000    2.4827    0.0000 C   0  0  0  0  0  0  0  0  0  0  0  0
    2.9061    0.9480    0.0000 C   0  0  0  0  0  0  0  0  0  0  0  0
    2.9061    3.0173    0.0000 C   0  0  0  0  0  0  0  0  0  0  0  0
    2.0000    1.4619    0.0000 C   0  0  0  0  0  0  0  0  0  0  0  0
    2.0000    2.5035    0.0000 C   0  0  0  0  0  0  0  0  0  0  0  0
   12.8588    1.9576    0.0000 H   0  0  0  0  0  0  0  0  0  0  0  0
   12.0617    1.9576    0.0000 H   0  0  0  0  0  0  0  0  0  0  0  0
   10.9837    0.0903    0.0000 H   0  0  0  0  0  0  0  0  0  0  0  0
   11.3822   -0.5999    0.0000 H   0  0  0  0  0  0  0  0  0  0  0  0
   13.9369    0.8750    0.0000 H   0  0  0  0  0  0  0  0  0  0  0  0
   13.5383    1.5653    0.0000 H   0  0  0  0  0  0  0  0  0  0  0  0
   12.0617   -0.9923    0.0000 H   0  0  0  0  0  0  0  0  0  0  0  0
   12.8588   -0.9923    0.0000 H   0  0  0  0  0  0  0  0  0  0  0  0
   11.1267    1.9576    0.0000 H   0  0  0  0  0  0  0  0  0  0  0  0
   10.3297    1.9576    0.0000 H   0  0  0  0  0  0  0  0  0  0  0  0
    9.4637    0.5077    0.0000 H   0  0  0  0  0  0  0  0  0  0  0  0
   10.2607    0.5077    0.0000 H   0  0  0  0  0  0  0  0  0  0  0  0
    9.3947    1.9576    0.0000 H   0  0  0  0  0  0  0  0  0  0  0  0
    8.5976    1.9576    0.0000 H   0  0  0  0  0  0  0  0  0  0  0  0
    7.7316    0.5077    0.0000 H   0  0  0  0  0  0  0  0  0  0  0  0
    8.5287    0.5077    0.0000 H   0  0  0  0  0  0  0  0  0  0  0  0
   15.0583    0.6027    0.0000 H   0  0  0  0  0  0  0  0  0  0  0  0
    7.2641    2.1027    0.0000 H   0  0  0  0  0  0  0  0  0  0  0  0
   16.4613   -0.2073    0.0000 H   0  0  0  0  0  0  0  0  0  0  0  0
   16.4613   -1.8273    0.0000 H   0  0  0  0  0  0  0  0  0  0  0  0
    6.0690    2.7927    0.0000 H   0  0  0  0  0  0  0  0  0  0  0  0
    2.9132    0.3280    0.0000 H   0  0  0  0  0  0  0  0  0  0  0  0
    2.9132    3.6373    0.0000 H   0  0  0  0  0  0  0  0  0  0  0  0
    1.4643    1.1498    0.0000 H   0  0  0  0  0  0  0  0  0  0  0  0
    1.4643    2.8156    0.0000 H   0  0  0  0  0  0  0  0  0  0  0  0
  1 18  1  0  0  0  0
  2 20  1  0  0  0  0
  3 23  2  0  0  0  0
  4  9  1  0  0  0  0
  4 10  1  0  0  0  0
  4 13  1  0  0  0  0
  5 11  1  0  0  0  0
  5 12  1  0  0  0  0
  5 15  1  0  0  0  0
  6 17  1  0  0  0  0
  6 23  1  0  0  0  0
  6 49  1  0  0  0  0
  7 24  2  0  0  0  0
  7 26  1  0  0  0  0
  8 25  2  0  0  0  0
  8 27  1  0  0  0  0
  9 11  1  0  0  0  0
  9 32  1  0  0  0  0
  9 33  1  0  0  0  0
 10 12  1  0  0  0  0
 10 34  1  0  0  0  0
 10 35  1  0  0  0  0
 11 36  1  0  0  0  0
 11 37  1  0  0  0  0
 12 38  1  0  0  0  0
 12 39  1  0  0  0  0
 13 14  1  0  0  0  0
 13 40  1  0  0  0  0
 13 41  1  0  0  0  0
 14 16  1  0  0  0  0
 14 42  1  0  0  0  0
 14 43  1  0  0  0  0
 15 18  2  0  0  0  0
 15 19  1  0  0  0  0
 16 17  1  0  0  0  0
 16 44  1  0  0  0  0
 16 45  1  0  0  0  0
 17 46  1  0  0  0  0
 17 47  1  0  0  0  0
 18 20  1  0  0  0  0
 19 21  2  0  0  0  0
 19 48  1  0  0  0  0
 20 22  2  0  0  0  0
 21 22  1  0  0  0  0
 21 50  1  0  0  0  0
 22 51  1  0  0  0  0
 23 24  1  0  0  0  0
 24 25  1  0  0  0  0
 25 52  1  0  0  0  0
 26 27  1  0  0  0  0
 26 28  2  0  0  0  0
 27 29  2  0  0  0  0
 28 30  1  0  0  0  0
 28 53  1  0  0  0  0
 29 31  1  0  0  0  0
 29 54  1  0  0  0  0
 30 31  2  0  0  0  0
 30 55  1  0  0  0  0
 31 56  1  0  0  0  0
M  END
> <PUBCHEM_COMPOUND_CID>
44309509

> <PUBCHEM_COMPOUND_CANONICALIZED>
1

> <PUBCHEM_CACTVS_COMPLEXITY>
574

> <PUBCHEM_CACTVS_HBOND_ACCEPTOR>
5

> <PUBCHEM_CACTVS_HBOND_DONOR>
1

> <PUBCHEM_CACTVS_ROTATABLE_BOND>
7

> <PUBCHEM_CACTVS_SUBSKEYS>
AAADceB7oAAGAAAAAAAAAAAAAAAAAAAAAAA8eIEAAAAAAACx9AAAHgIQAAAACArBliQ8wLPIEACoATV3VACCgCQ3FyAI2uG4dtgIYOrB07HUIIhglgDIyMcQAAAAAAAAAAIAADQAAAAABAAAaAAAAAAAAA==

> <PUBCHEM_IUPAC_OPENEYE_NAME>
N-[4-[4-(2,3-dichlorophenyl)piperazin-1-yl]butyl]quinoxaline-2-carboxamide

> <PUBCHEM_IUPAC_CAS_NAME>
N-[4-[4-(2,3-dichlorophenyl)-1-piperazinyl]butyl]-2-quinoxalinecarboxamide

> <PUBCHEM_IUPAC_NAME_MARKUP>
<I>N</I>-[4-[4-(2,3-dichlorophenyl)piperazin-1-yl]butyl]quinoxaline-2-carboxamide

> <PUBCHEM_IUPAC_NAME>
N-[4-[4-(2,3-dichlorophenyl)piperazin-1-yl]butyl]quinoxaline-2-carboxamide

> <PUBCHEM_IUPAC_SYSTEMATIC_NAME>
N-[4-[4-[2,3-bis(chloranyl)phenyl]piperazin-1-yl]butyl]quinoxaline-2-carboxamide

> <PUBCHEM_IUPAC_TRADITIONAL_NAME>
N-[4-[4-(2,3-dichlorophenyl)piperazino]butyl]quinoxaline-2-carboxamide

> <PUBCHEM_IUPAC_INCHI>
InChI=1S/C23H25Cl2N5O/c24-17-6-5-9-21(22(17)25)30-14-12-29(13-15-30)11-4-3-10-26-23(31)20-16-27-18-7-1-2-8-19(18)28-20/h1-2,5-9,16H,3-4,10-15H2,(H,26,31)

> <PUBCHEM_IUPAC_INCHIKEY>
WKAAYYBBGYEZQQ-UHFFFAOYSA-N

> <PUBCHEM_XLOGP3_AA>
4.4

> <PUBCHEM_EXACT_MASS>
457.1436158

> <PUBCHEM_MOLECULAR_FORMULA>
C23H25Cl2N5O

> <PUBCHEM_MOLECULAR_WEIGHT>
458.4

> <PUBCHEM_OPENEYE_CAN_SMILES>
C1CN(CCN1CCCCNC(=O)C2=NC3=CC=CC=C3N=C2)C4=C(C(=CC=C4)Cl)Cl

> <PUBCHEM_OPENEYE_ISO_SMILES>
C1CN(CCN1CCCCNC(=O)C2=NC3=CC=CC=C3N=C2)C4=C(C(=CC=C4)Cl)Cl

> <PUBCHEM_CACTVS_TPSA>
61.4

> <PUBCHEM_MONOISOTOPIC_WEIGHT>
457.1436158

> <PUBCHEM_TOTAL_CHARGE>
0

> <PUBCHEM_HEAVY_ATOM_COUNT>
31

> <PUBCHEM_ATOM_DEF_STEREO_COUNT>
0

> <PUBCHEM_ATOM_UDEF_STEREO_COUNT>
0

> <PUBCHEM_BOND_DEF_STEREO_COUNT>
0

> <PUBCHEM_BOND_UDEF_STEREO_COUNT>
0

> <PUBCHEM_ISOTOPIC_ATOM_COUNT>
0

> <PUBCHEM_COMPONENT_COUNT>
1

> <PUBCHEM_CACTVS_TAUTO_COUNT>
-1

> <PUBCHEM_COORDINATE_TYPE>
1
5
255

> <PUBCHEM_BONDANNOTATIONS>
15  18  8
15  19  8
18  20  8
19  21  8
20  22  8
21  22  8
24  25  8
26  27  8
26  28  8
27  29  8
28  30  8
29  31  8
30  31  8
7  24  8
7  26  8
8  25  8
8  27  8

$$$$
