44308839
  -OEChem-09292322222D

 47 49  0     1  0  0  0  0  0999 V2000
    3.4782    1.5168    0.0000 S   0  0  0  0  0  0  0  0  0  0  0  0
    8.7952   -2.5123    0.0000 O   0  0  0  0  0  0  0  0  0  0  0  0
    5.3147    0.5223    0.0000 N   0  0  3  0  0  0  0  0  0  0  0  0
    6.1808    0.0223    0.0000 C   0  0  2  0  0  0  0  0  0  0  0  0
    6.1808   -0.9777    0.0000 C   0  0  0  0  0  0  0  0  0  0  0  0
    7.0468    0.5223    0.0000 C   0  0  0  0  0  0  0  0  0  0  0  0
    7.0468   -1.4777    0.0000 C   0  0  0  0  0  0  0  0  0  0  0  0
    7.9128    0.0223    0.0000 C   0  0  0  0  0  0  0  0  0  0  0  0
    7.9128   -0.9777    0.0000 C   0  0  0  0  0  0  0  0  0  0  0  0
    5.3147    1.5223    0.0000 C   0  0  0  0  0  0  0  0  0  0  0  0
    4.4487    0.0223    0.0000 C   0  0  0  0  0  0  0  0  0  0  0  0
    8.8067   -1.5124    0.0000 C   0  0  0  0  0  0  0  0  0  0  0  0
    8.8067    0.5569    0.0000 C   0  0  0  0  0  0  0  0  0  0  0  0
    6.1808    2.0223    0.0000 C   0  0  0  0  0  0  0  0  0  0  0  0
    3.5827    0.5223    0.0000 C   0  0  0  0  0  0  0  0  0  0  0  0
    9.7128   -0.9985    0.0000 C   0  0  0  0  0  0  0  0  0  0  0  0
    9.7128    0.0431    0.0000 C   0  0  0  0  0  0  0  0  0  0  0  0
    6.1808    3.0223    0.0000 C   0  0  0  0  0  0  0  0  0  0  0  0
    2.6691    0.1156    0.0000 C   0  0  0  0  0  0  0  0  0  0  0  0
    2.0000    0.8587    0.0000 C   0  0  0  0  0  0  0  0  0  0  0  0
    2.5000    1.7247    0.0000 C   0  0  0  0  0  0  0  0  0  0  0  0
    9.6554   -3.0223    0.0000 C   0  0  0  0  0  0  0  0  0  0  0  0
    6.1808    0.6423    0.0000 H   0  0  0  0  0  0  0  0  0  0  0  0
    5.5702   -0.8701    0.0000 H   0  0  0  0  0  0  0  0  0  0  0  0
    5.9687   -1.5603    0.0000 H   0  0  0  0  0  0  0  0  0  0  0  0
    7.4453    0.9972    0.0000 H   0  0  0  0  0  0  0  0  0  0  0  0
    6.6482    0.9972    0.0000 H   0  0  0  0  0  0  0  0  0  0  0  0
    6.6482   -1.9527    0.0000 H   0  0  0  0  0  0  0  0  0  0  0  0
    7.4453   -1.9527    0.0000 H   0  0  0  0  0  0  0  0  0  0  0  0
    5.1027    2.1049    0.0000 H   0  0  0  0  0  0  0  0  0  0  0  0
    4.7042    1.4146    0.0000 H   0  0  0  0  0  0  0  0  0  0  0  0
    4.0502   -0.4527    0.0000 H   0  0  0  0  0  0  0  0  0  0  0  0
    4.8472   -0.4527    0.0000 H   0  0  0  0  0  0  0  0  0  0  0  0
    8.7996    1.1769    0.0000 H   0  0  0  0  0  0  0  0  0  0  0  0
    6.3928    1.4397    0.0000 H   0  0  0  0  0  0  0  0  0  0  0  0
    6.7913    2.1300    0.0000 H   0  0  0  0  0  0  0  0  0  0  0  0
   10.2485   -1.3106    0.0000 H   0  0  0  0  0  0  0  0  0  0  0  0
   10.2485    0.3552    0.0000 H   0  0  0  0  0  0  0  0  0  0  0  0
    6.8008    3.0223    0.0000 H   0  0  0  0  0  0  0  0  0  0  0  0
    6.1808    3.6423    0.0000 H   0  0  0  0  0  0  0  0  0  0  0  0
    5.5608    3.0223    0.0000 H   0  0  0  0  0  0  0  0  0  0  0  0
    2.5402   -0.4909    0.0000 H   0  0  0  0  0  0  0  0  0  0  0  0
    1.3834    0.7939    0.0000 H   0  0  0  0  0  0  0  0  0  0  0  0
    2.2478    2.2911    0.0000 H   0  0  0  0  0  0  0  0  0  0  0  0
    9.3392   -3.5556    0.0000 H   0  0  0  0  0  0  0  0  0  0  0  0
   10.1887   -3.3385    0.0000 H   0  0  0  0  0  0  0  0  0  0  0  0
    9.9716   -2.4890    0.0000 H   0  0  0  0  0  0  0  0  0  0  0  0
  1 15  1  0  0  0  0
  1 21  1  0  0  0  0
  2 12  1  0  0  0  0
  2 22  1  0  0  0  0
  4  3  1  1  0  0  0
  3 10  1  0  0  0  0
  3 11  1  0  0  0  0
  4  5  1  0  0  0  0
  4  6  1  0  0  0  0
  4 23  1  0  0  0  0
  5  7  1  0  0  0  0
  5 24  1  0  0  0  0
  5 25  1  0  0  0  0
  6  8  1  0  0  0  0
  6 26  1  0  0  0  0
  6 27  1  0  0  0  0
  7  9  1  0  0  0  0
  7 28  1  0  0  0  0
  7 29  1  0  0  0  0
  8  9  2  0  0  0  0
  8 13  1  0  0  0  0
  9 12  1  0  0  0  0
 10 14  1  0  0  0  0
 10 30  1  0  0  0  0
 10 31  1  0  0  0  0
 11 15  1  0  0  0  0
 11 32  1  0  0  0  0
 11 33  1  0  0  0  0
 12 16  2  0  0  0  0
 13 17  2  0  0  0  0
 13 34  1  0  0  0  0
 14 18  1  0  0  0  0
 14 35  1  0  0  0  0
 14 36  1  0  0  0  0
 15 19  2  0  0  0  0
 16 17  1  0  0  0  0
 16 37  1  0  0  0  0
 17 38  1  0  0  0  0
 18 39  1  0  0  0  0
 18 40  1  0  0  0  0
 18 41  1  0  0  0  0
 19 20  1  0  0  0  0
 19 42  1  0  0  0  0
 20 21  2  0  0  0  0
 20 43  1  0  0  0  0
 21 44  1  0  0  0  0
 22 45  1  0  0  0  0
 22 46  1  0  0  0  0
 22 47  1  0  0  0  0
M  END
> <PUBCHEM_COMPOUND_CID>
44308839

> <PUBCHEM_COMPOUND_CANONICALIZED>
1

> <PUBCHEM_CACTVS_COMPLEXITY>
337

> <PUBCHEM_CACTVS_HBOND_ACCEPTOR>
3

> <PUBCHEM_CACTVS_HBOND_DONOR>
0

> <PUBCHEM_CACTVS_ROTATABLE_BOND>
6

> <PUBCHEM_CACTVS_SUBSKEYS>
AAADceB6IABAAAAAAAAAAAAAAAAAASAAAAAwYAAAAAAAAADBwAAAHgQAAAAADCzF2AayB4MABAiEAiBCAACDCIAgKBBIiBgODIgMJiKksRuEMChkwBGoqAeQ0LMOgAABAAAYAAAQAAKAADAAAAAAAAAAAA==

> <PUBCHEM_IUPAC_OPENEYE_NAME>
(2R)-5-methoxy-N-propyl-N-(2-thienylmethyl)tetralin-2-amine

> <PUBCHEM_IUPAC_CAS_NAME>
(2R)-5-methoxy-N-propyl-N-(thiophen-2-ylmethyl)-1,2,3,4-tetrahydronaphthalen-2-amine

> <PUBCHEM_IUPAC_NAME_MARKUP>
(2<I>R</I>)-5-methoxy-<I>N</I>-propyl-<I>N</I>-(thiophen-2-ylmethyl)-1,2,3,4-tetrahydronaphthalen-2-amine

> <PUBCHEM_IUPAC_NAME>
(2R)-5-methoxy-N-propyl-N-(thiophen-2-ylmethyl)-1,2,3,4-tetrahydronaphthalen-2-amine

> <PUBCHEM_IUPAC_SYSTEMATIC_NAME>
(2R)-5-methoxy-N-propyl-N-(thiophen-2-ylmethyl)-1,2,3,4-tetrahydronaphthalen-2-amine

> <PUBCHEM_IUPAC_TRADITIONAL_NAME>
[(2R)-5-methoxytetralin-2-yl]-propyl-(2-thenyl)amine

> <PUBCHEM_IUPAC_INCHI>
InChI=1S/C19H25NOS/c1-3-11-20(14-17-7-5-12-22-17)16-9-10-18-15(13-16)6-4-8-19(18)21-2/h4-8,12,16H,3,9-11,13-14H2,1-2H3/t16-/m1/s1

> <PUBCHEM_IUPAC_INCHIKEY>
QEYDMNFIIPJGKU-MRXNPFEDSA-N

> <PUBCHEM_XLOGP3_AA>
4.8

> <PUBCHEM_EXACT_MASS>
315.16568559

> <PUBCHEM_MOLECULAR_FORMULA>
C19H25NOS

> <PUBCHEM_MOLECULAR_WEIGHT>
315.5

> <PUBCHEM_OPENEYE_CAN_SMILES>
CCCN(CC1=CC=CS1)C2CCC3=C(C2)C=CC=C3OC

> <PUBCHEM_OPENEYE_ISO_SMILES>
CCCN(CC1=CC=CS1)[C@@H]2CCC3=C(C2)C=CC=C3OC

> <PUBCHEM_CACTVS_TPSA>
40.7

> <PUBCHEM_MONOISOTOPIC_WEIGHT>
315.16568559

> <PUBCHEM_TOTAL_CHARGE>
0

> <PUBCHEM_HEAVY_ATOM_COUNT>
22

> <PUBCHEM_ATOM_DEF_STEREO_COUNT>
1

> <PUBCHEM_ATOM_UDEF_STEREO_COUNT>
0

> <PUBCHEM_BOND_DEF_STEREO_COUNT>
0

> <PUBCHEM_BOND_UDEF_STEREO_COUNT>
0

> <PUBCHEM_ISOTOPIC_ATOM_COUNT>
0

> <PUBCHEM_COMPONENT_COUNT>
1

> <PUBCHEM_CACTVS_TAUTO_COUNT>
-1

> <PUBCHEM_COORDINATE_TYPE>
1
5
255

> <PUBCHEM_BONDANNOTATIONS>
1  15  8
1  21  8
12  16  8
13  17  8
15  19  8
16  17  8
19  20  8
20  21  8
4  3  5
8  13  8
8  9  8
9  12  8

$$$$
