166633036
  -OEChem-09292322442D

 57 60  0     1  0  0  0  0  0999 V2000
   11.1735    2.2397    0.0000 S   0  0  0  0  0  0  0  0  0  0  0  0
    2.0000   -3.2175    0.0000 F   0  0  0  0  0  0  0  0  0  0  0  0
   11.3831    3.2175    0.0000 O   0  0  0  0  0  0  0  0  0  0  0  0
   10.9639    1.2619    0.0000 O   0  0  0  0  0  0  0  0  0  0  0  0
    5.5443   -3.0222    0.0000 O   0  0  0  0  0  0  0  0  0  0  0  0
    8.1226    0.9007    0.0000 N   0  0  3  0  0  0  0  0  0  0  0  0
    6.1279   -2.2175    0.0000 N   0  0  0  0  0  0  0  0  0  0  0  0
    9.5253    1.7073    0.0000 C   0  0  3  0  0  0  0  0  0  0  0  0
    8.5310    1.8136    0.0000 C   0  0  0  0  0  0  0  0  0  0  0  0
    9.7315    0.7288    0.0000 C   0  0  0  0  0  0  0  0  0  0  0  0
    8.8646    0.2303    0.0000 C   0  0  0  0  0  0  0  0  0  0  0  0
   10.1957    2.4493    0.0000 C   0  0  0  0  0  0  0  0  0  0  0  0
    7.1441    0.6945    0.0000 C   0  0  0  0  0  0  0  0  0  0  0  0
    6.8335   -0.2560    0.0000 C   0  0  0  0  0  0  0  0  0  0  0  0
   12.1513    2.0301    0.0000 C   0  0  0  0  0  0  0  0  0  0  0  0
    5.8550   -0.4622    0.0000 C   0  0  0  0  0  0  0  0  0  0  0  0
    5.5443   -1.4128    0.0000 C   0  0  0  0  0  0  0  0  0  0  0  0
   12.4586    1.0785    0.0000 C   0  0  0  0  0  0  0  0  0  0  0  0
   12.8217    2.7721    0.0000 C   0  0  0  0  0  0  0  0  0  0  0  0
   13.4364    0.8689    0.0000 C   0  0  0  0  0  0  0  0  0  0  0  0
    4.5981   -1.7175    0.0000 C   0  0  0  0  0  0  0  0  0  0  0  0
   13.7995    2.5625    0.0000 C   0  0  0  0  0  0  0  0  0  0  0  0
   14.1068    1.6109    0.0000 C   0  0  0  0  0  0  0  0  0  0  0  0
    4.5981   -2.7175    0.0000 C   0  0  0  0  0  0  0  0  0  0  0  0
   13.7438   -0.0827    0.0000 C   0  0  0  0  0  0  0  0  0  0  0  0
    3.7320   -1.2175    0.0000 C   0  0  0  0  0  0  0  0  0  0  0  0
   15.0846    1.4013    0.0000 C   0  0  0  0  0  0  0  0  0  0  0  0
    3.7320   -3.2175    0.0000 C   0  0  0  0  0  0  0  0  0  0  0  0
    2.8660   -1.7175    0.0000 C   0  0  0  0  0  0  0  0  0  0  0  0
    2.8660   -2.7175    0.0000 C   0  0  0  0  0  0  0  0  0  0  0  0
    9.3041    2.2865    0.0000 H   0  0  0  0  0  0  0  0  0  0  0  0
    8.6609    2.4198    0.0000 H   0  0  0  0  0  0  0  0  0  0  0  0
    7.9416    2.0062    0.0000 H   0  0  0  0  0  0  0  0  0  0  0  0
    9.9827    0.1620    0.0000 H   0  0  0  0  0  0  0  0  0  0  0  0
   10.3215    0.9194    0.0000 H   0  0  0  0  0  0  0  0  0  0  0  0
    8.4032   -0.1838    0.0000 H   0  0  0  0  0  0  0  0  0  0  0  0
    9.2282   -0.2719    0.0000 H   0  0  0  0  0  0  0  0  0  0  0  0
   10.4290    3.0238    0.0000 H   0  0  0  0  0  0  0  0  0  0  0  0
    9.6705    2.7788    0.0000 H   0  0  0  0  0  0  0  0  0  0  0  0
    7.1236    1.3142    0.0000 H   0  0  0  0  0  0  0  0  0  0  0  0
    6.5303    0.7819    0.0000 H   0  0  0  0  0  0  0  0  0  0  0  0
    6.8540   -0.8757    0.0000 H   0  0  0  0  0  0  0  0  0  0  0  0
    7.4473   -0.3434    0.0000 H   0  0  0  0  0  0  0  0  0  0  0  0
    5.8344    0.1574    0.0000 H   0  0  0  0  0  0  0  0  0  0  0  0
    5.2411   -0.3749    0.0000 H   0  0  0  0  0  0  0  0  0  0  0  0
   12.0430    0.6185    0.0000 H   0  0  0  0  0  0  0  0  0  0  0  0
   12.6311    3.3621    0.0000 H   0  0  0  0  0  0  0  0  0  0  0  0
   14.2151    3.0225    0.0000 H   0  0  0  0  0  0  0  0  0  0  0  0
   13.1538   -0.2733    0.0000 H   0  0  0  0  0  0  0  0  0  0  0  0
   13.9344   -0.6727    0.0000 H   0  0  0  0  0  0  0  0  0  0  0  0
   14.3338    0.1079    0.0000 H   0  0  0  0  0  0  0  0  0  0  0  0
    3.7320   -0.5975    0.0000 H   0  0  0  0  0  0  0  0  0  0  0  0
   14.9547    0.7951    0.0000 H   0  0  0  0  0  0  0  0  0  0  0  0
   15.6909    1.2713    0.0000 H   0  0  0  0  0  0  0  0  0  0  0  0
   15.2146    2.0075    0.0000 H   0  0  0  0  0  0  0  0  0  0  0  0
    3.7320   -3.8375    0.0000 H   0  0  0  0  0  0  0  0  0  0  0  0
    2.3291   -1.4075    0.0000 H   0  0  0  0  0  0  0  0  0  0  0  0
  1  3  2  0  0  0  0
  1  4  2  0  0  0  0
  1 12  1  0  0  0  0
  1 15  1  0  0  0  0
  2 30  1  0  0  0  0
  5  7  1  0  0  0  0
  5 24  1  0  0  0  0
  6  9  1  0  0  0  0
  6 11  1  0  0  0  0
  6 13  1  0  0  0  0
  7 17  2  0  0  0  0
  8  9  1  0  0  0  0
  8 10  1  0  0  0  0
  8 12  1  0  0  0  0
  8 31  1  0  0  0  0
  9 32  1  0  0  0  0
  9 33  1  0  0  0  0
 10 11  1  0  0  0  0
 10 34  1  0  0  0  0
 10 35  1  0  0  0  0
 11 36  1  0  0  0  0
 11 37  1  0  0  0  0
 12 38  1  0  0  0  0
 12 39  1  0  0  0  0
 13 14  1  0  0  0  0
 13 40  1  0  0  0  0
 13 41  1  0  0  0  0
 14 16  1  0  0  0  0
 14 42  1  0  0  0  0
 14 43  1  0  0  0  0
 15 18  2  0  0  0  0
 15 19  1  0  0  0  0
 16 17  1  0  0  0  0
 16 44  1  0  0  0  0
 16 45  1  0  0  0  0
 17 21  1  0  0  0  0
 18 20  1  0  0  0  0
 18 46  1  0  0  0  0
 19 22  2  0  0  0  0
 19 47  1  0  0  0  0
 20 23  2  0  0  0  0
 20 25  1  0  0  0  0
 21 24  2  0  0  0  0
 21 26  1  0  0  0  0
 22 23  1  0  0  0  0
 22 48  1  0  0  0  0
 23 27  1  0  0  0  0
 24 28  1  0  0  0  0
 25 49  1  0  0  0  0
 25 50  1  0  0  0  0
 25 51  1  0  0  0  0
 26 29  2  0  0  0  0
 26 52  1  0  0  0  0
 27 53  1  0  0  0  0
 27 54  1  0  0  0  0
 27 55  1  0  0  0  0
 28 30  2  0  0  0  0
 28 56  1  0  0  0  0
 29 30  1  0  0  0  0
 29 57  1  0  0  0  0
M  END
> <PUBCHEM_COMPOUND_CID>
166633036

> <PUBCHEM_COMPOUND_CANONICALIZED>
1

> <PUBCHEM_CACTVS_COMPLEXITY>
670

> <PUBCHEM_CACTVS_HBOND_ACCEPTOR>
6

> <PUBCHEM_CACTVS_HBOND_DONOR>
0

> <PUBCHEM_CACTVS_ROTATABLE_BOND>
7

> <PUBCHEM_CACTVS_SUBSKEYS>
AAADceB7MQBAAAAAAAAAAAAAAAAAAWLAAAAwYAAAAAAAAFgB9AAAHwQEAAAADQzF3gyyh9MQAAqpA6RyQnDCAAAkKBAomDk+TNoIJrqglZOEMYBmwBmoyceYyKCOkAAAgAAYAAAgAAEAADAAAAAAAAAAAA==

> <PUBCHEM_IUPAC_OPENEYE_NAME>
3-[3-[3-[(3,4-dimethylphenyl)sulfonylmethyl]pyrrolidin-1-yl]propyl]-6-fluoro-1,2-benzoxazole

> <PUBCHEM_IUPAC_CAS_NAME>
3-[3-[3-[(3,4-dimethylphenyl)sulfonylmethyl]-1-pyrrolidinyl]propyl]-6-fluoro-1,2-benzoxazole

> <PUBCHEM_IUPAC_NAME_MARKUP>
3-[3-[3-[(3,4-dimethylphenyl)sulfonylmethyl]pyrrolidin-1-yl]propyl]-6-fluoro-1,2-benzoxazole

> <PUBCHEM_IUPAC_NAME>
3-[3-[3-[(3,4-dimethylphenyl)sulfonylmethyl]pyrrolidin-1-yl]propyl]-6-fluoro-1,2-benzoxazole

> <PUBCHEM_IUPAC_SYSTEMATIC_NAME>
3-[3-[3-[(3,4-dimethylphenyl)sulfonylmethyl]pyrrolidin-1-yl]propyl]-6-fluoranyl-1,2-benzoxazole

> <PUBCHEM_IUPAC_TRADITIONAL_NAME>
3-[3-[3-[(3,4-dimethylphenyl)sulfonylmethyl]pyrrolidino]propyl]-6-fluoro-indoxazene

> <PUBCHEM_IUPAC_INCHI>
InChI=1S/C23H27FN2O3S/c1-16-5-7-20(12-17(16)2)30(27,28)15-18-9-11-26(14-18)10-3-4-22-21-8-6-19(24)13-23(21)29-25-22/h5-8,12-13,18H,3-4,9-11,14-15H2,1-2H3

> <PUBCHEM_IUPAC_INCHIKEY>
NQGAZHMNNANZRL-UHFFFAOYSA-N

> <PUBCHEM_XLOGP3_AA>
4.5

> <PUBCHEM_EXACT_MASS>
430.17264206

> <PUBCHEM_MOLECULAR_FORMULA>
C23H27FN2O3S

> <PUBCHEM_MOLECULAR_WEIGHT>
430.5

> <PUBCHEM_OPENEYE_CAN_SMILES>
CC1=C(C=C(C=C1)S(=O)(=O)CC2CCN(C2)CCCC3=NOC4=C3C=CC(=C4)F)C

> <PUBCHEM_OPENEYE_ISO_SMILES>
CC1=C(C=C(C=C1)S(=O)(=O)CC2CCN(C2)CCCC3=NOC4=C3C=CC(=C4)F)C

> <PUBCHEM_CACTVS_TPSA>
71.8

> <PUBCHEM_MONOISOTOPIC_WEIGHT>
430.17264206

> <PUBCHEM_TOTAL_CHARGE>
0

> <PUBCHEM_HEAVY_ATOM_COUNT>
30

> <PUBCHEM_ATOM_DEF_STEREO_COUNT>
0

> <PUBCHEM_ATOM_UDEF_STEREO_COUNT>
1

> <PUBCHEM_BOND_DEF_STEREO_COUNT>
0

> <PUBCHEM_BOND_UDEF_STEREO_COUNT>
0

> <PUBCHEM_ISOTOPIC_ATOM_COUNT>
0

> <PUBCHEM_COMPONENT_COUNT>
1

> <PUBCHEM_CACTVS_TAUTO_COUNT>
-1

> <PUBCHEM_COORDINATE_TYPE>
1
5
255

> <PUBCHEM_BONDANNOTATIONS>
15  18  8
15  19  8
17  21  8
18  20  8
19  22  8
20  23  8
21  24  8
21  26  8
22  23  8
24  28  8
26  29  8
28  30  8
29  30  8
5  24  8
5  7  8
7  17  8
8  12  3

$$$$
