72544787
  -OEChem-09292322342D

 80 84  0     1  0  0  0  0  0999 V2000
    6.0010   -7.7596    0.0000 F   0  0  0  0  0  0  0  0  0  0  0  0
    4.2690   -5.7596    0.0000 O   0  0  0  0  0  0  0  0  0  0  0  0
    6.0010   -5.7596    0.0000 O   0  0  0  0  0  0  0  0  0  0  0  0
    2.5369   -7.7596    0.0000 O   0  0  0  0  0  0  0  0  0  0  0  0
    4.2690   -8.7596    0.0000 O   0  0  0  0  0  0  0  0  0  0  0  0
    2.5369   -4.7596    0.0000 O   0  0  0  0  0  0  0  0  0  0  0  0
    8.7762    7.9470    0.0000 O   0  0  0  0  0  0  0  0  0  0  0  0
    7.7331   -2.7596    0.0000 O   0  0  0  0  0  0  0  0  0  0  0  0
    8.4141    4.5018    0.0000 N   0  0  0  0  0  0  0  0  0  0  0  0
    7.6007    6.3289    0.0000 N   0  0  0  0  0  0  0  0  0  0  0  0
    7.7331    1.2404    0.0000 N   0  0  0  0  0  0  0  0  0  0  0  0
    7.2331    2.7793    0.0000 N   0  0  0  0  0  0  0  0  0  0  0  0
    6.9241    1.8282    0.0000 N   0  0  0  0  0  0  0  0  0  0  0  0
    3.4030   -7.2596    0.0000 C   0  0  1  0  0  0  0  0  0  0  0  0
    4.2690   -7.7596    0.0000 C   0  0  1  0  0  0  0  0  0  0  0  0
    3.4030   -6.2596    0.0000 C   0  0  1  0  0  0  0  0  0  0  0  0
    5.1350   -7.2596    0.0000 C   0  0  2  0  0  0  0  0  0  0  0  0
    5.1350   -6.2596    0.0000 C   0  0  3  0  0  0  0  0  0  0  0  0
    9.0019    5.3109    0.0000 C   0  0  0  0  0  0  0  0  0  0  0  0
    7.4196    4.6064    0.0000 C   0  0  0  0  0  0  0  0  0  0  0  0
    8.5952    6.2244    0.0000 C   0  0  0  0  0  0  0  0  0  0  0  0
    7.0129    5.5199    0.0000 C   0  0  0  0  0  0  0  0  0  0  0  0
    2.5369   -5.7596    0.0000 C   0  0  0  0  0  0  0  0  0  0  0  0
    8.8209    3.5883    0.0000 C   0  0  0  0  0  0  0  0  0  0  0  0
    7.1939    7.2425    0.0000 C   0  0  0  0  0  0  0  0  0  0  0  0
    6.0010   -4.7596    0.0000 C   0  0  0  0  0  0  0  0  0  0  0  0
    8.2331    2.7793    0.0000 C   0  0  0  0  0  0  0  0  0  0  0  0
    6.8671   -4.2596    0.0000 C   0  0  0  0  0  0  0  0  0  0  0  0
    7.7817    8.0515    0.0000 C   0  0  0  0  0  0  0  0  0  0  0  0
    6.1994    7.3470    0.0000 C   0  0  0  0  0  0  0  0  0  0  0  0
    8.5421    1.8282    0.0000 C   0  0  0  0  0  0  0  0  0  0  0  0
    6.8671   -3.2596    0.0000 C   0  0  0  0  0  0  0  0  0  0  0  0
    7.3750    8.9650    0.0000 C   0  0  0  0  0  0  0  0  0  0  0  0
    5.7927    8.2606    0.0000 C   0  0  0  0  0  0  0  0  0  0  0  0
    6.3804    9.0696    0.0000 C   0  0  0  0  0  0  0  0  0  0  0  0
    7.7331    0.2404    0.0000 C   0  0  0  0  0  0  0  0  0  0  0  0
    7.7331   -1.7596    0.0000 C   0  0  0  0  0  0  0  0  0  0  0  0
    8.5991   -0.2596    0.0000 C   0  0  0  0  0  0  0  0  0  0  0  0
    6.8671   -0.2596    0.0000 C   0  0  0  0  0  0  0  0  0  0  0  0
    8.5991   -1.2596    0.0000 C   0  0  0  0  0  0  0  0  0  0  0  0
    6.8671   -1.2596    0.0000 C   0  0  0  0  0  0  0  0  0  0  0  0
    9.3640    8.7560    0.0000 C   0  0  0  0  0  0  0  0  0  0  0  0
    2.8660   -6.9496    0.0000 H   0  0  0  0  0  0  0  0  0  0  0  0
    3.7320   -8.0696    0.0000 H   0  0  0  0  0  0  0  0  0  0  0  0
    3.4030   -5.6396    0.0000 H   0  0  0  0  0  0  0  0  0  0  0  0
    5.1350   -7.8796    0.0000 H   0  0  0  0  0  0  0  0  0  0  0  0
    5.1350   -5.6396    0.0000 H   0  0  0  0  0  0  0  0  0  0  0  0
    9.4326    4.8649    0.0000 H   0  0  0  0  0  0  0  0  0  0  0  0
    9.5159    5.6576    0.0000 H   0  0  0  0  0  0  0  0  0  0  0  0
    6.8180    4.4564    0.0000 H   0  0  0  0  0  0  0  0  0  0  0  0
    7.4629    3.9879    0.0000 H   0  0  0  0  0  0  0  0  0  0  0  0
    9.1968    6.3744    0.0000 H   0  0  0  0  0  0  0  0  0  0  0  0
    8.5519    6.8429    0.0000 H   0  0  0  0  0  0  0  0  0  0  0  0
    6.5822    5.9659    0.0000 H   0  0  0  0  0  0  0  0  0  0  0  0
    6.4989    5.1732    0.0000 H   0  0  0  0  0  0  0  0  0  0  0  0
    1.9264   -5.6519    0.0000 H   0  0  0  0  0  0  0  0  0  0  0  0
    2.3249   -6.3422    0.0000 H   0  0  0  0  0  0  0  0  0  0  0  0
    9.2516    3.1423    0.0000 H   0  0  0  0  0  0  0  0  0  0  0  0
    9.3349    3.9350    0.0000 H   0  0  0  0  0  0  0  0  0  0  0  0
    2.5369   -8.3796    0.0000 H   0  0  0  0  0  0  0  0  0  0  0  0
    4.8059   -9.0696    0.0000 H   0  0  0  0  0  0  0  0  0  0  0  0
    5.7890   -4.1770    0.0000 H   0  0  0  0  0  0  0  0  0  0  0  0
    5.3905   -4.8672    0.0000 H   0  0  0  0  0  0  0  0  0  0  0  0
    7.0791   -4.8422    0.0000 H   0  0  0  0  0  0  0  0  0  0  0  0
    7.4776   -4.1519    0.0000 H   0  0  0  0  0  0  0  0  0  0  0  0
    2.0000   -4.4496    0.0000 H   0  0  0  0  0  0  0  0  0  0  0  0
    5.8350    6.8454    0.0000 H   0  0  0  0  0  0  0  0  0  0  0  0
    9.1318    1.6366    0.0000 H   0  0  0  0  0  0  0  0  0  0  0  0
    6.6550   -2.6770    0.0000 H   0  0  0  0  0  0  0  0  0  0  0  0
    6.2565   -3.3672    0.0000 H   0  0  0  0  0  0  0  0  0  0  0  0
    7.7394    9.4666    0.0000 H   0  0  0  0  0  0  0  0  0  0  0  0
    5.1761    8.3254    0.0000 H   0  0  0  0  0  0  0  0  0  0  0  0
    6.1283    9.6360    0.0000 H   0  0  0  0  0  0  0  0  0  0  0  0
    9.1360    0.0504    0.0000 H   0  0  0  0  0  0  0  0  0  0  0  0
    6.3301    0.0504    0.0000 H   0  0  0  0  0  0  0  0  0  0  0  0
    9.1360   -1.5696    0.0000 H   0  0  0  0  0  0  0  0  0  0  0  0
    6.3301   -1.5696    0.0000 H   0  0  0  0  0  0  0  0  0  0  0  0
    9.8656    8.3916    0.0000 H   0  0  0  0  0  0  0  0  0  0  0  0
    9.7284    9.2576    0.0000 H   0  0  0  0  0  0  0  0  0  0  0  0
    8.8624    9.1204    0.0000 H   0  0  0  0  0  0  0  0  0  0  0  0
 17  1  1  6  0  0  0
  2 16  1  0  0  0  0
  2 18  1  0  0  0  0
  3 18  1  0  0  0  0
  3 26  1  0  0  0  0
 14  4  1  6  0  0  0
  4 60  1  0  0  0  0
 15  5  1  1  0  0  0
  5 61  1  0  0  0  0
  6 23  1  0  0  0  0
  6 66  1  0  0  0  0
  7 29  1  0  0  0  0
  7 42  1  0  0  0  0
  8 32  1  0  0  0  0
  8 37  1  0  0  0  0
  9 19  1  0  0  0  0
  9 20  1  0  0  0  0
  9 24  1  0  0  0  0
 10 21  1  0  0  0  0
 10 22  1  0  0  0  0
 10 25  1  0  0  0  0
 11 13  1  0  0  0  0
 11 31  1  0  0  0  0
 11 36  1  0  0  0  0
 12 13  2  0  0  0  0
 12 27  1  0  0  0  0
 14 15  1  0  0  0  0
 14 16  1  0  0  0  0
 14 43  1  0  0  0  0
 15 17  1  0  0  0  0
 15 44  1  0  0  0  0
 16 23  1  1  0  0  0
 16 45  1  0  0  0  0
 17 18  1  0  0  0  0
 17 46  1  0  0  0  0
 18 47  1  0  0  0  0
 19 21  1  0  0  0  0
 19 48  1  0  0  0  0
 19 49  1  0  0  0  0
 20 22  1  0  0  0  0
 20 50  1  0  0  0  0
 20 51  1  0  0  0  0
 21 52  1  0  0  0  0
 21 53  1  0  0  0  0
 22 54  1  0  0  0  0
 22 55  1  0  0  0  0
 23 56  1  0  0  0  0
 23 57  1  0  0  0  0
 24 27  1  0  0  0  0
 24 58  1  0  0  0  0
 24 59  1  0  0  0  0
 25 29  1  0  0  0  0
 25 30  2  0  0  0  0
 26 28  1  0  0  0  0
 26 62  1  0  0  0  0
 26 63  1  0  0  0  0
 27 31  2  0  0  0  0
 28 32  1  0  0  0  0
 28 64  1  0  0  0  0
 28 65  1  0  0  0  0
 29 33  2  0  0  0  0
 30 34  1  0  0  0  0
 30 67  1  0  0  0  0
 31 68  1  0  0  0  0
 32 69  1  0  0  0  0
 32 70  1  0  0  0  0
 33 35  1  0  0  0  0
 33 71  1  0  0  0  0
 34 35  2  0  0  0  0
 34 72  1  0  0  0  0
 35 73  1  0  0  0  0
 36 38  2  0  0  0  0
 36 39  1  0  0  0  0
 37 40  2  0  0  0  0
 37 41  1  0  0  0  0
 38 40  1  0  0  0  0
 38 74  1  0  0  0  0
 39 41  2  0  0  0  0
 39 75  1  0  0  0  0
 40 76  1  0  0  0  0
 41 77  1  0  0  0  0
 42 78  1  0  0  0  0
 42 79  1  0  0  0  0
 42 80  1  0  0  0  0
M  END
> <PUBCHEM_COMPOUND_CID>
72544787

> <PUBCHEM_COMPOUND_CANONICALIZED>
1

> <PUBCHEM_CACTVS_COMPLEXITY>
792

> <PUBCHEM_CACTVS_HBOND_ACCEPTOR>
12

> <PUBCHEM_CACTVS_HBOND_DONOR>
3

> <PUBCHEM_CACTVS_ROTATABLE_BOND>
12

> <PUBCHEM_CACTVS_SUBSKEYS>
AAADcfB7uQAAAAAAAAAAAAAAAAAAAWAAAAA8aIEAAAAAAAAB0AAAHwAICAAACBzxlgc+zpMIBgCiATRnRACCDCQxsgAYmAA/fIgfdmLE8Zu3eCjlwBHf6AfwYAwAAEAAAAAAEAAAgAAAAAAgAAAAAAAAAA==

> <PUBCHEM_IUPAC_OPENEYE_NAME>
(2R,3S,4S,5R)-5-fluoro-2-(hydroxymethyl)-6-[3-[4-[4-[[4-(2-methoxyphenyl)piperazin-1-yl]methyl]triazol-1-yl]phenoxy]propoxy]tetrahydropyran-3,4-diol

> <PUBCHEM_IUPAC_CAS_NAME>
(2R,3S,4S,5R)-5-fluoro-2-(hydroxymethyl)-6-[3-[4-[4-[[4-(2-methoxyphenyl)-1-piperazinyl]methyl]-1-triazolyl]phenoxy]propoxy]oxane-3,4-diol

> <PUBCHEM_IUPAC_NAME_MARKUP>
(2<I>R</I>,3<I>S</I>,4<I>S</I>,5<I>R</I>)-5-fluoro-2-(hydroxymethyl)-6-[3-[4-[4-[[4-(2-methoxyphenyl)piperazin-1-yl]methyl]triazol-1-yl]phenoxy]propoxy]oxane-3,4-diol

> <PUBCHEM_IUPAC_NAME>
(2R,3S,4S,5R)-5-fluoro-2-(hydroxymethyl)-6-[3-[4-[4-[[4-(2-methoxyphenyl)piperazin-1-yl]methyl]triazol-1-yl]phenoxy]propoxy]oxane-3,4-diol

> <PUBCHEM_IUPAC_SYSTEMATIC_NAME>
(2R,3S,4S,5R)-5-fluoranyl-2-(hydroxymethyl)-6-[3-[4-[4-[[4-(2-methoxyphenyl)piperazin-1-yl]methyl]-1,2,3-triazol-1-yl]phenoxy]propoxy]oxane-3,4-diol

> <PUBCHEM_IUPAC_TRADITIONAL_NAME>
(2R,3S,4S,5R)-5-fluoro-6-[3-[4-[4-[[4-(2-methoxyphenyl)piperazino]methyl]triazol-1-yl]phenoxy]propoxy]-2-methylol-tetrahydropyran-3,4-diol

> <PUBCHEM_IUPAC_INCHI>
InChI=1S/C29H38FN5O7/c1-39-24-6-3-2-5-23(24)34-13-11-33(12-14-34)17-20-18-35(32-31-20)21-7-9-22(10-8-21)40-15-4-16-41-29-26(30)28(38)27(37)25(19-36)42-29/h2-3,5-10,18,25-29,36-38H,4,11-17,19H2,1H3/t25-,26-,27-,28-,29?/m1/s1

> <PUBCHEM_IUPAC_INCHIKEY>
UYUTUOIZGIGQQA-VIVFLBMVSA-N

> <PUBCHEM_XLOGP3_AA>
1.9

> <PUBCHEM_EXACT_MASS>
587.27552673

> <PUBCHEM_MOLECULAR_FORMULA>
C29H38FN5O7

> <PUBCHEM_MOLECULAR_WEIGHT>
587.6

> <PUBCHEM_OPENEYE_CAN_SMILES>
COC1=CC=CC=C1N2CCN(CC2)CC3=CN(N=N3)C4=CC=C(C=C4)OCCCOC5C(C(C(C(O5)CO)O)O)F

> <PUBCHEM_OPENEYE_ISO_SMILES>
COC1=CC=CC=C1N2CCN(CC2)CC3=CN(N=N3)C4=CC=C(C=C4)OCCCOC5[C@@H]([C@H]([C@@H]([C@H](O5)CO)O)O)F

> <PUBCHEM_CACTVS_TPSA>
135

> <PUBCHEM_MONOISOTOPIC_WEIGHT>
587.27552673

> <PUBCHEM_TOTAL_CHARGE>
0

> <PUBCHEM_HEAVY_ATOM_COUNT>
42

> <PUBCHEM_ATOM_DEF_STEREO_COUNT>
4

> <PUBCHEM_ATOM_UDEF_STEREO_COUNT>
1

> <PUBCHEM_BOND_DEF_STEREO_COUNT>
0

> <PUBCHEM_BOND_UDEF_STEREO_COUNT>
0

> <PUBCHEM_ISOTOPIC_ATOM_COUNT>
0

> <PUBCHEM_COMPONENT_COUNT>
1

> <PUBCHEM_CACTVS_TAUTO_COUNT>
-1

> <PUBCHEM_COORDINATE_TYPE>
1
5
255

> <PUBCHEM_BONDANNOTATIONS>
17  1  6
11  13  8
11  31  8
12  13  8
12  27  8
16  23  5
25  29  8
25  30  8
27  31  8
29  33  8
18  3  3
30  34  8
33  35  8
34  35  8
36  38  8
36  39  8
37  40  8
37  41  8
38  40  8
39  41  8
14  4  6
15  5  5

$$$$
