9949655
  -OEChem-09292322032D

 44 47  0     0  0  0  0  0  0999 V2000
    4.0981    5.2694    0.0000 S   0  0  0  0  0  0  0  0  0  0  0  0
    2.8660   -0.2694    0.0000 N   0  0  0  0  0  0  0  0  0  0  0  0
    2.8660   -2.2694    0.0000 N   0  0  0  0  0  0  0  0  0  0  0  0
    3.7320   -3.7694    0.0000 N   0  0  0  0  0  0  0  0  0  0  0  0
    2.0000   -3.7694    0.0000 N   0  0  0  0  0  0  0  0  0  0  0  0
    2.0000   -0.7694    0.0000 C   0  0  0  0  0  0  0  0  0  0  0  0
    3.7320   -0.7694    0.0000 C   0  0  0  0  0  0  0  0  0  0  0  0
    2.0000   -1.7694    0.0000 C   0  0  0  0  0  0  0  0  0  0  0  0
    3.7320   -1.7694    0.0000 C   0  0  0  0  0  0  0  0  0  0  0  0
    2.8660    0.7306    0.0000 C   0  0  0  0  0  0  0  0  0  0  0  0
    3.7320    1.2306    0.0000 C   0  0  0  0  0  0  0  0  0  0  0  0
    2.8660   -3.2694    0.0000 C   0  0  0  0  0  0  0  0  0  0  0  0
    3.7320    2.2306    0.0000 C   0  0  0  0  0  0  0  0  0  0  0  0
    4.5981    0.7306    0.0000 C   0  0  0  0  0  0  0  0  0  0  0  0
    4.5981    2.7306    0.0000 C   0  0  0  0  0  0  0  0  0  0  0  0
    5.4641    1.2306    0.0000 C   0  0  0  0  0  0  0  0  0  0  0  0
    5.4641    2.2306    0.0000 C   0  0  0  0  0  0  0  0  0  0  0  0
    4.5981    3.7306    0.0000 C   0  0  0  0  0  0  0  0  0  0  0  0
    3.7320   -4.7694    0.0000 C   0  0  0  0  0  0  0  0  0  0  0  0
    2.0000   -4.7694    0.0000 C   0  0  0  0  0  0  0  0  0  0  0  0
    2.8660   -5.2694    0.0000 C   0  0  0  0  0  0  0  0  0  0  0  0
    5.4071    4.3184    0.0000 C   0  0  0  0  0  0  0  0  0  0  0  0
    3.7891    4.3184    0.0000 C   0  0  0  0  0  0  0  0  0  0  0  0
    5.0981    5.2694    0.0000 C   0  0  0  0  0  0  0  0  0  0  0  0
    1.7880   -0.1868    0.0000 H   0  0  0  0  0  0  0  0  0  0  0  0
    1.3894   -0.8771    0.0000 H   0  0  0  0  0  0  0  0  0  0  0  0
    4.3426   -0.8771    0.0000 H   0  0  0  0  0  0  0  0  0  0  0  0
    3.9441   -0.1868    0.0000 H   0  0  0  0  0  0  0  0  0  0  0  0
    1.3894   -1.6618    0.0000 H   0  0  0  0  0  0  0  0  0  0  0  0
    1.7880   -2.3520    0.0000 H   0  0  0  0  0  0  0  0  0  0  0  0
    3.9441   -2.3520    0.0000 H   0  0  0  0  0  0  0  0  0  0  0  0
    4.3426   -1.6618    0.0000 H   0  0  0  0  0  0  0  0  0  0  0  0
    2.6540    1.3132    0.0000 H   0  0  0  0  0  0  0  0  0  0  0  0
    2.2554    0.6229    0.0000 H   0  0  0  0  0  0  0  0  0  0  0  0
    3.1951    2.5406    0.0000 H   0  0  0  0  0  0  0  0  0  0  0  0
    4.5981    0.1106    0.0000 H   0  0  0  0  0  0  0  0  0  0  0  0
    6.0010    0.9206    0.0000 H   0  0  0  0  0  0  0  0  0  0  0  0
    6.0010    2.5406    0.0000 H   0  0  0  0  0  0  0  0  0  0  0  0
    4.2690   -5.0794    0.0000 H   0  0  0  0  0  0  0  0  0  0  0  0
    1.4631   -5.0794    0.0000 H   0  0  0  0  0  0  0  0  0  0  0  0
    2.8660   -5.8894    0.0000 H   0  0  0  0  0  0  0  0  0  0  0  0
    5.9967    4.1268    0.0000 H   0  0  0  0  0  0  0  0  0  0  0  0
    3.1994    4.1268    0.0000 H   0  0  0  0  0  0  0  0  0  0  0  0
    5.4625    5.7710    0.0000 H   0  0  0  0  0  0  0  0  0  0  0  0
  1 23  1  0  0  0  0
  1 24  1  0  0  0  0
  2  6  1  0  0  0  0
  2  7  1  0  0  0  0
  2 10  1  0  0  0  0
  3  8  1  0  0  0  0
  3  9  1  0  0  0  0
  3 12  1  0  0  0  0
  4 12  1  0  0  0  0
  4 19  2  0  0  0  0
  5 12  2  0  0  0  0
  5 20  1  0  0  0  0
  6  8  1  0  0  0  0
  6 25  1  0  0  0  0
  6 26  1  0  0  0  0
  7  9  1  0  0  0  0
  7 27  1  0  0  0  0
  7 28  1  0  0  0  0
  8 29  1  0  0  0  0
  8 30  1  0  0  0  0
  9 31  1  0  0  0  0
  9 32  1  0  0  0  0
 10 11  1  0  0  0  0
 10 33  1  0  0  0  0
 10 34  1  0  0  0  0
 11 13  2  0  0  0  0
 11 14  1  0  0  0  0
 13 15  1  0  0  0  0
 13 35  1  0  0  0  0
 14 16  2  0  0  0  0
 14 36  1  0  0  0  0
 15 17  2  0  0  0  0
 15 18  1  0  0  0  0
 16 17  1  0  0  0  0
 16 37  1  0  0  0  0
 17 38  1  0  0  0  0
 18 22  1  0  0  0  0
 18 23  2  0  0  0  0
 19 21  1  0  0  0  0
 19 39  1  0  0  0  0
 20 21  2  0  0  0  0
 20 40  1  0  0  0  0
 21 41  1  0  0  0  0
 22 24  2  0  0  0  0
 22 42  1  0  0  0  0
 23 43  1  0  0  0  0
 24 44  1  0  0  0  0
M  END
> <PUBCHEM_COMPOUND_CID>
9949655

> <PUBCHEM_COMPOUND_CANONICALIZED>
1

> <PUBCHEM_CACTVS_COMPLEXITY>
380

> <PUBCHEM_CACTVS_HBOND_ACCEPTOR>
5

> <PUBCHEM_CACTVS_HBOND_DONOR>
0

> <PUBCHEM_CACTVS_ROTATABLE_BOND>
4

> <PUBCHEM_CACTVS_SUBSKEYS>
AAADceB7gABAAAAAAAAAAAAAAAAAASAAAAA8WIAAAAAAAAAB8AAAHAQAAAAADADFWgS9kZcIEAikAjBnZACDgKkxCrBJ2Dg4ZJiIaKLg2VGUJAhogALoiCcQgMAOgAACAAAAAAAAAAQAAAAAAAAAAAAAAA==

> <PUBCHEM_IUPAC_OPENEYE_NAME>
2-[4-[[3-(3-thienyl)phenyl]methyl]piperazin-1-yl]pyrimidine

> <PUBCHEM_IUPAC_CAS_NAME>
2-[4-[[3-(3-thiophenyl)phenyl]methyl]-1-piperazinyl]pyrimidine

> <PUBCHEM_IUPAC_NAME_MARKUP>
2-[4-[(3-thiophen-3-ylphenyl)methyl]piperazin-1-yl]pyrimidine

> <PUBCHEM_IUPAC_NAME>
2-[4-[(3-thiophen-3-ylphenyl)methyl]piperazin-1-yl]pyrimidine

> <PUBCHEM_IUPAC_SYSTEMATIC_NAME>
2-[4-[(3-thiophen-3-ylphenyl)methyl]piperazin-1-yl]pyrimidine

> <PUBCHEM_IUPAC_TRADITIONAL_NAME>
2-[4-[3-(3-thienyl)benzyl]piperazino]pyrimidine

> <PUBCHEM_IUPAC_INCHI>
InChI=1S/C19H20N4S/c1-3-16(13-17(4-1)18-5-12-24-15-18)14-22-8-10-23(11-9-22)19-20-6-2-7-21-19/h1-7,12-13,15H,8-11,14H2

> <PUBCHEM_IUPAC_INCHIKEY>
RRLCBKCJYXFQHA-UHFFFAOYSA-N

> <PUBCHEM_XLOGP3_AA>
3.3

> <PUBCHEM_EXACT_MASS>
336.14086783

> <PUBCHEM_MOLECULAR_FORMULA>
C19H20N4S

> <PUBCHEM_MOLECULAR_WEIGHT>
336.5

> <PUBCHEM_OPENEYE_CAN_SMILES>
C1CN(CCN1CC2=CC(=CC=C2)C3=CSC=C3)C4=NC=CC=N4

> <PUBCHEM_OPENEYE_ISO_SMILES>
C1CN(CCN1CC2=CC(=CC=C2)C3=CSC=C3)C4=NC=CC=N4

> <PUBCHEM_CACTVS_TPSA>
60.5

> <PUBCHEM_MONOISOTOPIC_WEIGHT>
336.14086783

> <PUBCHEM_TOTAL_CHARGE>
0

> <PUBCHEM_HEAVY_ATOM_COUNT>
24

> <PUBCHEM_ATOM_DEF_STEREO_COUNT>
0

> <PUBCHEM_ATOM_UDEF_STEREO_COUNT>
0

> <PUBCHEM_BOND_DEF_STEREO_COUNT>
0

> <PUBCHEM_BOND_UDEF_STEREO_COUNT>
0

> <PUBCHEM_ISOTOPIC_ATOM_COUNT>
0

> <PUBCHEM_COMPONENT_COUNT>
1

> <PUBCHEM_CACTVS_TAUTO_COUNT>
-1

> <PUBCHEM_COORDINATE_TYPE>
1
5
255

> <PUBCHEM_BONDANNOTATIONS>
1  23  8
1  24  8
11  13  8
11  14  8
13  15  8
14  16  8
15  17  8
16  17  8
18  22  8
18  23  8
19  21  8
20  21  8
22  24  8
4  12  8
4  19  8
5  12  8
5  20  8

$$$$
