44297693
  -OEChem-09292322222D

 75 79  0     1  0  0  0  0  0999 V2000
    3.7320    1.8454    0.0000 S   0  0  0  0  0  0  0  0  0  0  0  0
    2.0000    2.8454    0.0000 F   0  0  0  0  0  0  0  0  0  0  0  0
    2.3660    1.4793    0.0000 F   0  0  0  0  0  0  0  0  0  0  0  0
    3.3660    3.2114    0.0000 F   0  0  0  0  0  0  0  0  0  0  0  0
    4.5981    1.3454    0.0000 O   0  0  0  0  0  0  0  0  0  0  0  0
   19.5959   -3.3800    0.0000 O   0  0  0  0  0  0  0  0  0  0  0  0
   14.1961    2.8045    0.0000 O   0  0  0  0  0  0  0  0  0  0  0  0
    3.2320    0.9793    0.0000 O   0  0  0  0  0  0  0  0  0  0  0  0
    4.2320    2.7114    0.0000 O   0  0  0  0  0  0  0  0  0  0  0  0
    8.9962    1.8245    0.0000 N   0  0  3  0  0  0  0  0  0  0  0  0
   20.2409   -1.7188    0.0000 N   0  0  0  0  0  0  0  0  0  0  0  0
   13.3243    1.3078    0.0000 N   0  0  0  0  0  0  0  0  0  0  0  0
    8.9962    2.8662    0.0000 C   0  0  0  0  0  0  0  0  0  0  0  0
    8.0901    1.3107    0.0000 C   0  0  0  0  0  0  0  0  0  0  0  0
    8.0901    3.3800    0.0000 C   0  0  0  0  0  0  0  0  0  0  0  0
    9.8602    1.3212    0.0000 C   0  0  0  0  0  0  0  0  0  0  0  0
    7.1962    1.8454    0.0000 C   0  0  0  0  0  0  0  0  0  0  0  0
    7.1962    2.8454    0.0000 C   0  0  0  0  0  0  0  0  0  0  0  0
   10.7282    1.8179    0.0000 C   0  0  0  0  0  0  0  0  0  0  0  0
   11.5923    1.3145    0.0000 C   0  0  0  0  0  0  0  0  0  0  0  0
    6.3301    1.3454    0.0000 C   0  0  0  0  0  0  0  0  0  0  0  0
    6.3301    3.3454    0.0000 C   0  0  0  0  0  0  0  0  0  0  0  0
    5.4641    1.8454    0.0000 C   0  0  0  0  0  0  0  0  0  0  0  0
   12.4602    1.8112    0.0000 C   0  0  0  0  0  0  0  0  0  0  0  0
    5.4641    2.8454    0.0000 C   0  0  0  0  0  0  0  0  0  0  0  0
   21.1560   -1.3156    0.0000 C   0  0  0  0  0  0  0  0  0  0  0  0
   21.8223   -2.0613    0.0000 C   0  0  0  0  0  0  0  0  0  0  0  0
   21.3190   -2.9254    0.0000 C   0  0  0  0  0  0  0  0  0  0  0  0
   20.3416   -2.7138    0.0000 C   0  0  0  0  0  0  0  0  0  0  0  0
   19.3768   -1.2155    0.0000 C   0  0  0  0  0  0  0  0  0  0  0  0
   18.5089   -1.7122    0.0000 C   0  0  0  0  0  0  0  0  0  0  0  0
   19.3807   -0.2155    0.0000 C   0  0  0  0  0  0  0  0  0  0  0  0
   14.1923    1.8045    0.0000 C   0  0  0  0  0  0  0  0  0  0  0  0
   17.6486   -0.2088    0.0000 C   0  0  0  0  0  0  0  0  0  0  0  0
   17.6448   -1.2088    0.0000 C   0  0  0  0  0  0  0  0  0  0  0  0
   18.5166    0.2878    0.0000 C   0  0  0  0  0  0  0  0  0  0  0  0
   16.7845    0.2945    0.0000 C   0  0  0  0  0  0  0  0  0  0  0  0
   15.0564    1.3012    0.0000 C   0  0  0  0  0  0  0  0  0  0  0  0
   15.9166   -0.2022    0.0000 C   0  0  0  0  0  0  0  0  0  0  0  0
   16.7884    1.2945    0.0000 C   0  0  0  0  0  0  0  0  0  0  0  0
   15.0525    0.3012    0.0000 C   0  0  0  0  0  0  0  0  0  0  0  0
   15.9243    1.7978    0.0000 C   0  0  0  0  0  0  0  0  0  0  0  0
    2.8660    2.3454    0.0000 C   0  0  0  0  0  0  0  0  0  0  0  0
    9.6070    2.7601    0.0000 H   0  0  0  0  0  0  0  0  0  0  0  0
    9.2052    3.4499    0.0000 H   0  0  0  0  0  0  0  0  0  0  0  0
    7.6855    0.8409    0.0000 H   0  0  0  0  0  0  0  0  0  0  0  0
    8.4837    0.8317    0.0000 H   0  0  0  0  0  0  0  0  0  0  0  0
    8.4837    3.8590    0.0000 H   0  0  0  0  0  0  0  0  0  0  0  0
    7.6855    3.8498    0.0000 H   0  0  0  0  0  0  0  0  0  0  0  0
    9.4599    0.8478    0.0000 H   0  0  0  0  0  0  0  0  0  0  0  0
   10.2569    0.8447    0.0000 H   0  0  0  0  0  0  0  0  0  0  0  0
   11.1286    2.2913    0.0000 H   0  0  0  0  0  0  0  0  0  0  0  0
   10.3315    2.2943    0.0000 H   0  0  0  0  0  0  0  0  0  0  0  0
   11.1919    0.8411    0.0000 H   0  0  0  0  0  0  0  0  0  0  0  0
   11.9890    0.8380    0.0000 H   0  0  0  0  0  0  0  0  0  0  0  0
    6.3301    0.7254    0.0000 H   0  0  0  0  0  0  0  0  0  0  0  0
    6.3301    3.9654    0.0000 H   0  0  0  0  0  0  0  0  0  0  0  0
   12.8606    2.2846    0.0000 H   0  0  0  0  0  0  0  0  0  0  0  0
   12.0635    2.2877    0.0000 H   0  0  0  0  0  0  0  0  0  0  0  0
    4.9272    3.1554    0.0000 H   0  0  0  0  0  0  0  0  0  0  0  0
   21.6590   -0.9531    0.0000 H   0  0  0  0  0  0  0  0  0  0  0  0
   20.8481   -0.7775    0.0000 H   0  0  0  0  0  0  0  0  0  0  0  0
   22.3225   -2.4277    0.0000 H   0  0  0  0  0  0  0  0  0  0  0  0
   22.2389   -1.6022    0.0000 H   0  0  0  0  0  0  0  0  0  0  0  0
   21.1251   -3.5143    0.0000 H   0  0  0  0  0  0  0  0  0  0  0  0
   21.8844   -3.1798    0.0000 H   0  0  0  0  0  0  0  0  0  0  0  0
   13.3219    0.6879    0.0000 H   0  0  0  0  0  0  0  0  0  0  0  0
   18.5065   -2.3322    0.0000 H   0  0  0  0  0  0  0  0  0  0  0  0
   19.9188    0.0924    0.0000 H   0  0  0  0  0  0  0  0  0  0  0  0
   17.1067   -1.5168    0.0000 H   0  0  0  0  0  0  0  0  0  0  0  0
   18.5190    0.9078    0.0000 H   0  0  0  0  0  0  0  0  0  0  0  0
   15.9142   -0.8222    0.0000 H   0  0  0  0  0  0  0  0  0  0  0  0
   17.3265    1.6024    0.0000 H   0  0  0  0  0  0  0  0  0  0  0  0
   14.5144   -0.0067    0.0000 H   0  0  0  0  0  0  0  0  0  0  0  0
   15.9267    2.4178    0.0000 H   0  0  0  0  0  0  0  0  0  0  0  0
  1  5  1  0  0  0  0
  1  8  2  0  0  0  0
  1  9  2  0  0  0  0
  1 43  1  0  0  0  0
  2 43  1  0  0  0  0
  3 43  1  0  0  0  0
  4 43  1  0  0  0  0
  5 23  1  0  0  0  0
  6 29  2  0  0  0  0
  7 33  2  0  0  0  0
 10 13  1  0  0  0  0
 10 14  1  0  0  0  0
 10 16  1  0  0  0  0
 11 26  1  0  0  0  0
 11 29  1  0  0  0  0
 11 30  1  0  0  0  0
 12 24  1  0  0  0  0
 12 33  1  0  0  0  0
 12 67  1  0  0  0  0
 13 15  1  0  0  0  0
 13 44  1  0  0  0  0
 13 45  1  0  0  0  0
 14 17  1  0  0  0  0
 14 46  1  0  0  0  0
 14 47  1  0  0  0  0
 15 18  1  0  0  0  0
 15 48  1  0  0  0  0
 15 49  1  0  0  0  0
 16 19  1  0  0  0  0
 16 50  1  0  0  0  0
 16 51  1  0  0  0  0
 17 18  2  0  0  0  0
 17 21  1  0  0  0  0
 18 22  1  0  0  0  0
 19 20  1  0  0  0  0
 19 52  1  0  0  0  0
 19 53  1  0  0  0  0
 20 24  1  0  0  0  0
 20 54  1  0  0  0  0
 20 55  1  0  0  0  0
 21 23  2  0  0  0  0
 21 56  1  0  0  0  0
 22 25  2  0  0  0  0
 22 57  1  0  0  0  0
 23 25  1  0  0  0  0
 24 58  1  0  0  0  0
 24 59  1  0  0  0  0
 25 60  1  0  0  0  0
 26 27  1  0  0  0  0
 26 61  1  0  0  0  0
 26 62  1  0  0  0  0
 27 28  1  0  0  0  0
 27 63  1  0  0  0  0
 27 64  1  0  0  0  0
 28 29  1  0  0  0  0
 28 65  1  0  0  0  0
 28 66  1  0  0  0  0
 30 31  2  0  0  0  0
 30 32  1  0  0  0  0
 31 35  1  0  0  0  0
 31 68  1  0  0  0  0
 32 36  2  0  0  0  0
 32 69  1  0  0  0  0
 33 38  1  0  0  0  0
 34 35  2  0  0  0  0
 34 36  1  0  0  0  0
 34 37  1  0  0  0  0
 35 70  1  0  0  0  0
 36 71  1  0  0  0  0
 37 39  2  0  0  0  0
 37 40  1  0  0  0  0
 38 41  2  0  0  0  0
 38 42  1  0  0  0  0
 39 41  1  0  0  0  0
 39 72  1  0  0  0  0
 40 42  2  0  0  0  0
 40 73  1  0  0  0  0
 41 74  1  0  0  0  0
 42 75  1  0  0  0  0
M  END
> <PUBCHEM_COMPOUND_CID>
44297693

> <PUBCHEM_COMPOUND_CANONICALIZED>
1

> <PUBCHEM_CACTVS_COMPLEXITY>
1050

> <PUBCHEM_CACTVS_HBOND_ACCEPTOR>
9

> <PUBCHEM_CACTVS_HBOND_DONOR>
1

> <PUBCHEM_CACTVS_ROTATABLE_BOND>
10

> <PUBCHEM_CACTVS_SUBSKEYS>
AAADcfB7OYBAAAAAAAAAAAAAAAAAAWAAAAA8YMEAAAAAAACxUAAAHwQQAAAADAzBmBQwxoPAAAKIAiVSUHCCAAAlIgAIiIEObMgIJjLAlZOEMQhk1hHIyYe8yNCO6AABAAAQAADQAAIAACAAAAAAAAAAAA==

> <PUBCHEM_IUPAC_OPENEYE_NAME>
[2-[4-[[4-[4-(2-oxopyrrolidin-1-yl)phenyl]benzoyl]amino]butyl]-3,4-dihydro-1H-isoquinolin-7-yl] trifluoromethanesulfonate

> <PUBCHEM_IUPAC_CAS_NAME>
trifluoromethanesulfonic acid [2-[4-[[oxo-[4-[4-(2-oxo-1-pyrrolidinyl)phenyl]phenyl]methyl]amino]butyl]-3,4-dihydro-1H-isoquinolin-7-yl] ester

> <PUBCHEM_IUPAC_NAME_MARKUP>
[2-[4-[[4-[4-(2-oxopyrrolidin-1-yl)phenyl]benzoyl]amino]butyl]-3,4-dihydro-1<I>H</I>-isoquinolin-7-yl] trifluoromethanesulfonate

> <PUBCHEM_IUPAC_NAME>
[2-[4-[[4-[4-(2-oxopyrrolidin-1-yl)phenyl]benzoyl]amino]butyl]-3,4-dihydro-1H-isoquinolin-7-yl] trifluoromethanesulfonate

> <PUBCHEM_IUPAC_SYSTEMATIC_NAME>
[2-[4-[[4-[4-(2-oxidanylidenepyrrolidin-1-yl)phenyl]phenyl]carbonylamino]butyl]-3,4-dihydro-1H-isoquinolin-7-yl] tris(fluoranyl)methanesulfonate

> <PUBCHEM_IUPAC_TRADITIONAL_NAME>
trifluoromethanesulfonic acid [2-[4-[[4-[4-(2-ketopyrrolidino)phenyl]benzoyl]amino]butyl]-3,4-dihydro-1H-isoquinolin-7-yl] ester

> <PUBCHEM_IUPAC_INCHI>
InChI=1S/C31H32F3N3O5S/c32-31(33,34)43(40,41)42-28-14-11-24-15-19-36(21-26(24)20-28)17-2-1-16-35-30(39)25-7-5-22(6-8-25)23-9-12-27(13-10-23)37-18-3-4-29(37)38/h5-14,20H,1-4,15-19,21H2,(H,35,39)

> <PUBCHEM_IUPAC_INCHIKEY>
LQMXUNHATCSENV-UHFFFAOYSA-N

> <PUBCHEM_XLOGP3_AA>
5.3

> <PUBCHEM_EXACT_MASS>
615.20147679

> <PUBCHEM_MOLECULAR_FORMULA>
C31H32F3N3O5S

> <PUBCHEM_MOLECULAR_WEIGHT>
615.7

> <PUBCHEM_OPENEYE_CAN_SMILES>
C1CC(=O)N(C1)C2=CC=C(C=C2)C3=CC=C(C=C3)C(=O)NCCCCN4CCC5=C(C4)C=C(C=C5)OS(=O)(=O)C(F)(F)F

> <PUBCHEM_OPENEYE_ISO_SMILES>
C1CC(=O)N(C1)C2=CC=C(C=C2)C3=CC=C(C=C3)C(=O)NCCCCN4CCC5=C(C4)C=C(C=C5)OS(=O)(=O)C(F)(F)F

> <PUBCHEM_CACTVS_TPSA>
104

> <PUBCHEM_MONOISOTOPIC_WEIGHT>
615.20147679

> <PUBCHEM_TOTAL_CHARGE>
0

> <PUBCHEM_HEAVY_ATOM_COUNT>
43

> <PUBCHEM_ATOM_DEF_STEREO_COUNT>
0

> <PUBCHEM_ATOM_UDEF_STEREO_COUNT>
0

> <PUBCHEM_BOND_DEF_STEREO_COUNT>
0

> <PUBCHEM_BOND_UDEF_STEREO_COUNT>
0

> <PUBCHEM_ISOTOPIC_ATOM_COUNT>
0

> <PUBCHEM_COMPONENT_COUNT>
1

> <PUBCHEM_CACTVS_TAUTO_COUNT>
-1

> <PUBCHEM_COORDINATE_TYPE>
1
5
255

> <PUBCHEM_BONDANNOTATIONS>
17  18  8
17  21  8
18  22  8
21  23  8
22  25  8
23  25  8
30  31  8
30  32  8
31  35  8
32  36  8
34  35  8
34  36  8
37  39  8
37  40  8
38  41  8
38  42  8
39  41  8
40  42  8

$$$$
