15937765
  -OEChem-09292322002D

 25 27  0     1  0  0  0  0  0999 V2000
    4.8714    2.1828    0.0000 O   0  0  0  0  0  0  0  0  0  0  0  0
    4.6660    0.4372    0.0000 N   0  0  0  0  0  0  0  0  0  0  0  0
    3.3073    1.3811    0.0000 N   0  0  0  0  0  0  0  0  0  0  0  0
    6.3981   -1.5628    0.0000 N   0  0  0  0  0  0  0  0  0  0  0  0
    5.5321   -1.0628    0.0000 C   0  0  1  0  0  0  0  0  0  0  0  0
    5.5321   -0.0628    0.0000 C   0  0  0  0  0  0  0  0  0  0  0  0
    4.6660   -1.5628    0.0000 C   0  0  0  0  0  0  0  0  0  0  0  0
    3.8000   -0.0628    0.0000 C   0  0  0  0  0  0  0  0  0  0  0  0
    3.8000   -1.0628    0.0000 C   0  0  0  0  0  0  0  0  0  0  0  0
    2.9061    0.4719    0.0000 C   0  0  0  0  0  0  0  0  0  0  0  0
    4.3009    1.3615    0.0000 C   0  0  0  0  0  0  0  0  0  0  0  0
    2.9061   -1.5975    0.0000 C   0  0  0  0  0  0  0  0  0  0  0  0
    2.0000   -0.0420    0.0000 C   0  0  0  0  0  0  0  0  0  0  0  0
    2.0000   -1.0836    0.0000 C   0  0  0  0  0  0  0  0  0  0  0  0
    5.5321   -1.6828    0.0000 H   0  0  0  0  0  0  0  0  0  0  0  0
    6.1426   -0.1705    0.0000 H   0  0  0  0  0  0  0  0  0  0  0  0
    5.7441    0.5198    0.0000 H   0  0  0  0  0  0  0  0  0  0  0  0
    4.2675   -2.0378    0.0000 H   0  0  0  0  0  0  0  0  0  0  0  0
    5.0646   -2.0378    0.0000 H   0  0  0  0  0  0  0  0  0  0  0  0
    2.9739    1.9038    0.0000 H   0  0  0  0  0  0  0  0  0  0  0  0
    2.9132   -2.2174    0.0000 H   0  0  0  0  0  0  0  0  0  0  0  0
    6.3981   -2.1828    0.0000 H   0  0  0  0  0  0  0  0  0  0  0  0
    6.9350   -1.2528    0.0000 H   0  0  0  0  0  0  0  0  0  0  0  0
    1.4643    0.2701    0.0000 H   0  0  0  0  0  0  0  0  0  0  0  0
    1.4643   -1.3957    0.0000 H   0  0  0  0  0  0  0  0  0  0  0  0
  1 11  2  0  0  0  0
  2  6  1  0  0  0  0
  2  8  1  0  0  0  0
  2 11  1  0  0  0  0
  3 10  1  0  0  0  0
  3 11  1  0  0  0  0
  3 20  1  0  0  0  0
  5  4  1  6  0  0  0
  4 22  1  0  0  0  0
  4 23  1  0  0  0  0
  5  6  1  0  0  0  0
  5  7  1  0  0  0  0
  5 15  1  0  0  0  0
  6 16  1  0  0  0  0
  6 17  1  0  0  0  0
  7  9  1  0  0  0  0
  7 18  1  0  0  0  0
  7 19  1  0  0  0  0
  8  9  2  0  0  0  0
  8 10  1  0  0  0  0
  9 12  1  0  0  0  0
 10 13  2  0  0  0  0
 12 14  2  0  0  0  0
 12 21  1  0  0  0  0
 13 14  1  0  0  0  0
 13 24  1  0  0  0  0
 14 25  1  0  0  0  0
M  END
> <PUBCHEM_COMPOUND_CID>
15937765

> <PUBCHEM_COMPOUND_CANONICALIZED>
1

> <PUBCHEM_CACTVS_COMPLEXITY>
268

> <PUBCHEM_CACTVS_HBOND_ACCEPTOR>
2

> <PUBCHEM_CACTVS_HBOND_DONOR>
2

> <PUBCHEM_CACTVS_ROTATABLE_BOND>
0

> <PUBCHEM_CACTVS_SUBSKEYS>
AAADccBzIAAAAAAAAAAAAAAAAAAAAWAAAAA8QAAAAAAAAFixAAAAHgAQAAAADCjBGAQxwIPAAACIAiRCUACCAAAhAgAIiIAIdIiIYCLAkZGUIAholgLIyCcQgIAOAAAAQAACACAAAACAAAQAQAAAAAAAAA==

> <PUBCHEM_IUPAC_OPENEYE_NAME>
(10R)-10-amino-1,3-diazatricyclo[6.3.1.04,12]dodeca-4,6,8(12)-trien-2-one

> <PUBCHEM_IUPAC_CAS_NAME>
(10R)-10-amino-1,3-diazatricyclo[6.3.1.04,12]dodeca-4,6,8(12)-trien-2-one

> <PUBCHEM_IUPAC_NAME_MARKUP>
(10<I>R</I>)-10-amino-1,3-diazatricyclo[6.3.1.0<SUP>4,12</SUP>]dodeca-4,6,8(12)-trien-2-one

> <PUBCHEM_IUPAC_NAME>
(10R)-10-amino-1,3-diazatricyclo[6.3.1.04,12]dodeca-4,6,8(12)-trien-2-one

> <PUBCHEM_IUPAC_SYSTEMATIC_NAME>
(10R)-10-azanyl-1,3-diazatricyclo[6.3.1.04,12]dodeca-4,6,8(12)-trien-2-one

> <PUBCHEM_IUPAC_TRADITIONAL_NAME>
(10R)-10-amino-1,3-diazatricyclo[6.3.1.04,12]dodeca-4,6,8(12)-trien-2-one

> <PUBCHEM_IUPAC_INCHI>
InChI=1S/C10H11N3O/c11-7-4-6-2-1-3-8-9(6)13(5-7)10(14)12-8/h1-3,7H,4-5,11H2,(H,12,14)/t7-/m1/s1

> <PUBCHEM_IUPAC_INCHIKEY>
WZANXVXLOKIMAM-SSDOTTSWSA-N

> <PUBCHEM_XLOGP3_AA>
-0.1

> <PUBCHEM_EXACT_MASS>
189.090211983

> <PUBCHEM_MOLECULAR_FORMULA>
C10H11N3O

> <PUBCHEM_MOLECULAR_WEIGHT>
189.21

> <PUBCHEM_OPENEYE_CAN_SMILES>
C1C(CN2C3=C1C=CC=C3NC2=O)N

> <PUBCHEM_OPENEYE_ISO_SMILES>
C1[C@H](CN2C3=C1C=CC=C3NC2=O)N

> <PUBCHEM_CACTVS_TPSA>
58.4

> <PUBCHEM_MONOISOTOPIC_WEIGHT>
189.090211983

> <PUBCHEM_TOTAL_CHARGE>
0

> <PUBCHEM_HEAVY_ATOM_COUNT>
14

> <PUBCHEM_ATOM_DEF_STEREO_COUNT>
1

> <PUBCHEM_ATOM_UDEF_STEREO_COUNT>
0

> <PUBCHEM_BOND_DEF_STEREO_COUNT>
0

> <PUBCHEM_BOND_UDEF_STEREO_COUNT>
0

> <PUBCHEM_ISOTOPIC_ATOM_COUNT>
0

> <PUBCHEM_COMPONENT_COUNT>
1

> <PUBCHEM_CACTVS_TAUTO_COUNT>
2

> <PUBCHEM_COORDINATE_TYPE>
1
5
255

> <PUBCHEM_BONDANNOTATIONS>
10  13  8
12  14  8
13  14  8
2  11  8
2  8  8
3  10  8
3  11  8
5  4  6
8  10  8
8  9  8
9  12  8

$$$$
