10075078
  -OEChem-09292322202D

 80 84  0     1  0  0  0  0  0999 V2000
   15.8728   -1.5765    0.0000 O   0  0  0  0  0  0  0  0  0  0  0  0
    7.1962    2.4581    0.0000 O   0  0  0  0  0  0  0  0  0  0  0  0
   12.3923    1.4581    0.0000 N   0  0  3  0  0  0  0  0  0  0  0  0
    8.0622    0.9581    0.0000 N   0  0  0  0  0  0  0  0  0  0  0  0
   16.7214   -3.0864    0.0000 C   0  0  0  0  0  0  0  0  0  0  0  0
   16.2114   -3.9466    0.0000 C   0  0  0  0  0  0  0  0  0  0  0  0
   17.2113   -3.9581    0.0000 C   0  0  0  0  0  0  0  0  0  0  0  0
   13.2583    0.9581    0.0000 C   0  0  3  0  0  0  0  0  0  0  0  0
   16.7329   -2.0864    0.0000 C   0  0  0  0  0  0  0  0  0  0  0  0
   13.2583   -0.0419    0.0000 C   0  0  0  0  0  0  0  0  0  0  0  0
   14.1244    1.4581    0.0000 C   0  0  0  0  0  0  0  0  0  0  0  0
   14.1244   -0.5419    0.0000 C   0  0  0  0  0  0  0  0  0  0  0  0
   14.9904   -0.0419    0.0000 C   0  0  0  0  0  0  0  0  0  0  0  0
   14.9904    0.9581    0.0000 C   0  0  0  0  0  0  0  0  0  0  0  0
   15.8843   -0.5765    0.0000 C   0  0  0  0  0  0  0  0  0  0  0  0
   11.5263    0.9581    0.0000 C   0  0  0  0  0  0  0  0  0  0  0  0
   12.3923    2.4581    0.0000 C   0  0  0  0  0  0  0  0  0  0  0  0
   15.8843    1.4928    0.0000 C   0  0  0  0  0  0  0  0  0  0  0  0
   10.6603    1.4581    0.0000 C   0  0  0  0  0  0  0  0  0  0  0  0
   16.7904   -0.0627    0.0000 C   0  0  0  0  0  0  0  0  0  0  0  0
   11.5263    2.9581    0.0000 C   0  0  0  0  0  0  0  0  0  0  0  0
   16.7904    0.9789    0.0000 C   0  0  0  0  0  0  0  0  0  0  0  0
    9.7942    0.9581    0.0000 C   0  0  0  0  0  0  0  0  0  0  0  0
   11.5263    3.9581    0.0000 C   0  0  0  0  0  0  0  0  0  0  0  0
    8.9282    1.4581    0.0000 C   0  0  0  0  0  0  0  0  0  0  0  0
    7.1962    1.4581    0.0000 C   0  0  0  0  0  0  0  0  0  0  0  0
    6.3301    0.9581    0.0000 C   0  0  0  0  0  0  0  0  0  0  0  0
    5.4641    1.4581    0.0000 C   0  0  0  0  0  0  0  0  0  0  0  0
    6.3301   -0.0419    0.0000 C   0  0  0  0  0  0  0  0  0  0  0  0
    4.5981    0.9581    0.0000 C   0  0  0  0  0  0  0  0  0  0  0  0
    5.4641   -0.5419    0.0000 C   0  0  0  0  0  0  0  0  0  0  0  0
    4.5981   -0.0419    0.0000 C   0  0  0  0  0  0  0  0  0  0  0  0
    3.7320   -0.5419    0.0000 C   0  0  0  0  0  0  0  0  0  0  0  0
    2.8660   -0.0419    0.0000 C   0  0  0  0  0  0  0  0  0  0  0  0
    3.7320   -1.5419    0.0000 C   0  0  0  0  0  0  0  0  0  0  0  0
    2.0000   -0.5419    0.0000 C   0  0  0  0  0  0  0  0  0  0  0  0
    2.8660   -2.0419    0.0000 C   0  0  0  0  0  0  0  0  0  0  0  0
    2.0000   -1.5419    0.0000 C   0  0  0  0  0  0  0  0  0  0  0  0
   16.1244   -2.9190    0.0000 H   0  0  0  0  0  0  0  0  0  0  0  0
   15.6313   -3.7278    0.0000 H   0  0  0  0  0  0  0  0  0  0  0  0
   16.0967   -4.5559    0.0000 H   0  0  0  0  0  0  0  0  0  0  0  0
   17.3119   -4.5699    0.0000 H   0  0  0  0  0  0  0  0  0  0  0  0
   17.7964   -3.7528    0.0000 H   0  0  0  0  0  0  0  0  0  0  0  0
   13.2583    1.5781    0.0000 H   0  0  0  0  0  0  0  0  0  0  0  0
   17.3422   -2.2012    0.0000 H   0  0  0  0  0  0  0  0  0  0  0  0
   16.9517   -1.5063    0.0000 H   0  0  0  0  0  0  0  0  0  0  0  0
   12.6477    0.0658    0.0000 H   0  0  0  0  0  0  0  0  0  0  0  0
   13.0463   -0.6245    0.0000 H   0  0  0  0  0  0  0  0  0  0  0  0
   14.5229    1.9331    0.0000 H   0  0  0  0  0  0  0  0  0  0  0  0
   13.7258    1.9331    0.0000 H   0  0  0  0  0  0  0  0  0  0  0  0
   13.7258   -1.0168    0.0000 H   0  0  0  0  0  0  0  0  0  0  0  0
   14.5229   -1.0168    0.0000 H   0  0  0  0  0  0  0  0  0  0  0  0
   11.1278    0.4832    0.0000 H   0  0  0  0  0  0  0  0  0  0  0  0
   11.9248    0.4832    0.0000 H   0  0  0  0  0  0  0  0  0  0  0  0
   13.0029    2.3505    0.0000 H   0  0  0  0  0  0  0  0  0  0  0  0
   12.6044    3.0407    0.0000 H   0  0  0  0  0  0  0  0  0  0  0  0
   15.8772    2.1128    0.0000 H   0  0  0  0  0  0  0  0  0  0  0  0
   11.0588    1.9331    0.0000 H   0  0  0  0  0  0  0  0  0  0  0  0
   10.2617    1.9331    0.0000 H   0  0  0  0  0  0  0  0  0  0  0  0
   17.3261   -0.3748    0.0000 H   0  0  0  0  0  0  0  0  0  0  0  0
   10.9157    3.0658    0.0000 H   0  0  0  0  0  0  0  0  0  0  0  0
   11.3142    2.3755    0.0000 H   0  0  0  0  0  0  0  0  0  0  0  0
   17.3261    1.2910    0.0000 H   0  0  0  0  0  0  0  0  0  0  0  0
    9.3957    0.4832    0.0000 H   0  0  0  0  0  0  0  0  0  0  0  0
   10.1928    0.4832    0.0000 H   0  0  0  0  0  0  0  0  0  0  0  0
   12.1463    3.9581    0.0000 H   0  0  0  0  0  0  0  0  0  0  0  0
   11.5263    4.5781    0.0000 H   0  0  0  0  0  0  0  0  0  0  0  0
   10.9063    3.9581    0.0000 H   0  0  0  0  0  0  0  0  0  0  0  0
    9.3267    1.9331    0.0000 H   0  0  0  0  0  0  0  0  0  0  0  0
    8.5297    1.9331    0.0000 H   0  0  0  0  0  0  0  0  0  0  0  0
    8.0622    0.3381    0.0000 H   0  0  0  0  0  0  0  0  0  0  0  0
    5.4641    2.0781    0.0000 H   0  0  0  0  0  0  0  0  0  0  0  0
    6.8671   -0.3519    0.0000 H   0  0  0  0  0  0  0  0  0  0  0  0
    4.0611    1.2681    0.0000 H   0  0  0  0  0  0  0  0  0  0  0  0
    5.4641   -1.1619    0.0000 H   0  0  0  0  0  0  0  0  0  0  0  0
    2.8660    0.5781    0.0000 H   0  0  0  0  0  0  0  0  0  0  0  0
    4.2690   -1.8519    0.0000 H   0  0  0  0  0  0  0  0  0  0  0  0
    1.4631   -0.2319    0.0000 H   0  0  0  0  0  0  0  0  0  0  0  0
    2.8660   -2.6619    0.0000 H   0  0  0  0  0  0  0  0  0  0  0  0
    1.4631   -1.8519    0.0000 H   0  0  0  0  0  0  0  0  0  0  0  0
  1  9  1  0  0  0  0
  1 15  1  0  0  0  0
  2 26  2  0  0  0  0
  3  8  1  0  0  0  0
  3 16  1  0  0  0  0
  3 17  1  0  0  0  0
  4 25  1  0  0  0  0
  4 26  1  0  0  0  0
  4 71  1  0  0  0  0
  5  6  1  0  0  0  0
  5  7  1  0  0  0  0
  5  9  1  0  0  0  0
  5 39  1  0  0  0  0
  6  7  1  0  0  0  0
  6 40  1  0  0  0  0
  6 41  1  0  0  0  0
  7 42  1  0  0  0  0
  7 43  1  0  0  0  0
  8 10  1  0  0  0  0
  8 11  1  0  0  0  0
  8 44  1  0  0  0  0
  9 45  1  0  0  0  0
  9 46  1  0  0  0  0
 10 12  1  0  0  0  0
 10 47  1  0  0  0  0
 10 48  1  0  0  0  0
 11 14  1  0  0  0  0
 11 49  1  0  0  0  0
 11 50  1  0  0  0  0
 12 13  1  0  0  0  0
 12 51  1  0  0  0  0
 12 52  1  0  0  0  0
 13 14  2  0  0  0  0
 13 15  1  0  0  0  0
 14 18  1  0  0  0  0
 15 20  2  0  0  0  0
 16 19  1  0  0  0  0
 16 53  1  0  0  0  0
 16 54  1  0  0  0  0
 17 21  1  0  0  0  0
 17 55  1  0  0  0  0
 17 56  1  0  0  0  0
 18 22  2  0  0  0  0
 18 57  1  0  0  0  0
 19 23  1  0  0  0  0
 19 58  1  0  0  0  0
 19 59  1  0  0  0  0
 20 22  1  0  0  0  0
 20 60  1  0  0  0  0
 21 24  1  0  0  0  0
 21 61  1  0  0  0  0
 21 62  1  0  0  0  0
 22 63  1  0  0  0  0
 23 25  1  0  0  0  0
 23 64  1  0  0  0  0
 23 65  1  0  0  0  0
 24 66  1  0  0  0  0
 24 67  1  0  0  0  0
 24 68  1  0  0  0  0
 25 69  1  0  0  0  0
 25 70  1  0  0  0  0
 26 27  1  0  0  0  0
 27 28  2  0  0  0  0
 27 29  1  0  0  0  0
 28 30  1  0  0  0  0
 28 72  1  0  0  0  0
 29 31  2  0  0  0  0
 29 73  1  0  0  0  0
 30 32  2  0  0  0  0
 30 74  1  0  0  0  0
 31 32  1  0  0  0  0
 31 75  1  0  0  0  0
 32 33  1  0  0  0  0
 33 34  2  0  0  0  0
 33 35  1  0  0  0  0
 34 36  1  0  0  0  0
 34 76  1  0  0  0  0
 35 37  2  0  0  0  0
 35 77  1  0  0  0  0
 36 38  2  0  0  0  0
 36 78  1  0  0  0  0
 37 38  1  0  0  0  0
 37 79  1  0  0  0  0
 38 80  1  0  0  0  0
M  END
> <PUBCHEM_COMPOUND_CID>
10075078

> <PUBCHEM_COMPOUND_CANONICALIZED>
1

> <PUBCHEM_CACTVS_COMPLEXITY>
695

> <PUBCHEM_CACTVS_HBOND_ACCEPTOR>
3

> <PUBCHEM_CACTVS_HBOND_DONOR>
1

> <PUBCHEM_CACTVS_ROTATABLE_BOND>
13

> <PUBCHEM_CACTVS_SUBSKEYS>
AAADcfB/MAAAAAAAAAAAAAAAGAAAAAAAAAAwYMGAAAAAAADBUAAAHgAQAAAADSzhmAYyBoPABACIAiFSEACCCAAkIAAIiIEODMgMJjKEtRuGOSjk1hGIqYeY2POOwAABAAAYAACQAAKAADAAAAAAAAAAAA==

> <PUBCHEM_IUPAC_OPENEYE_NAME>
N-[4-[[5-(cyclopropylmethoxy)tetralin-2-yl]-propyl-amino]butyl]-4-phenyl-benzamide

> <PUBCHEM_IUPAC_CAS_NAME>
N-[4-[[5-(cyclopropylmethoxy)-1,2,3,4-tetrahydronaphthalen-2-yl]-propylamino]butyl]-4-phenylbenzamide

> <PUBCHEM_IUPAC_NAME_MARKUP>
<I>N</I>-[4-[[5-(cyclopropylmethoxy)-1,2,3,4-tetrahydronaphthalen-2-yl]-propylamino]butyl]-4-phenylbenzamide

> <PUBCHEM_IUPAC_NAME>
N-[4-[[5-(cyclopropylmethoxy)-1,2,3,4-tetrahydronaphthalen-2-yl]-propylamino]butyl]-4-phenylbenzamide

> <PUBCHEM_IUPAC_SYSTEMATIC_NAME>
N-[4-[[5-(cyclopropylmethoxy)-1,2,3,4-tetrahydronaphthalen-2-yl]-propyl-amino]butyl]-4-phenyl-benzamide

> <PUBCHEM_IUPAC_TRADITIONAL_NAME>
N-[4-[[5-(cyclopropylmethoxy)tetralin-2-yl]-propyl-amino]butyl]-4-phenyl-benzamide

> <PUBCHEM_IUPAC_INCHI>
InChI=1S/C34H42N2O2/c1-2-22-36(31-19-20-32-30(24-31)11-8-12-33(32)38-25-26-13-14-26)23-7-6-21-35-34(37)29-17-15-28(16-18-29)27-9-4-3-5-10-27/h3-5,8-12,15-18,26,31H,2,6-7,13-14,19-25H2,1H3,(H,35,37)

> <PUBCHEM_IUPAC_INCHIKEY>
UUKCJRIPKQWEID-UHFFFAOYSA-N

> <PUBCHEM_XLOGP3_AA>
7.6

> <PUBCHEM_EXACT_MASS>
510.324628587

> <PUBCHEM_MOLECULAR_FORMULA>
C34H42N2O2

> <PUBCHEM_MOLECULAR_WEIGHT>
510.7

> <PUBCHEM_OPENEYE_CAN_SMILES>
CCCN(CCCCNC(=O)C1=CC=C(C=C1)C2=CC=CC=C2)C3CCC4=C(C3)C=CC=C4OCC5CC5

> <PUBCHEM_OPENEYE_ISO_SMILES>
CCCN(CCCCNC(=O)C1=CC=C(C=C1)C2=CC=CC=C2)C3CCC4=C(C3)C=CC=C4OCC5CC5

> <PUBCHEM_CACTVS_TPSA>
41.6

> <PUBCHEM_MONOISOTOPIC_WEIGHT>
510.324628587

> <PUBCHEM_TOTAL_CHARGE>
0

> <PUBCHEM_HEAVY_ATOM_COUNT>
38

> <PUBCHEM_ATOM_DEF_STEREO_COUNT>
0

> <PUBCHEM_ATOM_UDEF_STEREO_COUNT>
1

> <PUBCHEM_BOND_DEF_STEREO_COUNT>
0

> <PUBCHEM_BOND_UDEF_STEREO_COUNT>
0

> <PUBCHEM_ISOTOPIC_ATOM_COUNT>
0

> <PUBCHEM_COMPONENT_COUNT>
1

> <PUBCHEM_CACTVS_TAUTO_COUNT>
-1

> <PUBCHEM_COORDINATE_TYPE>
1
5
255

> <PUBCHEM_BONDANNOTATIONS>
13  14  8
13  15  8
14  18  8
15  20  8
18  22  8
20  22  8
27  28  8
27  29  8
28  30  8
29  31  8
8  3  3
30  32  8
31  32  8
33  34  8
33  35  8
34  36  8
35  37  8
36  38  8
37  38  8

$$$$
