163388532
  -OEChem-09292322062D

 86 93  0     1  0  0  0  0  0999 V2000
   16.2186   -0.7148    0.0000 S   0  0  0  0  0  0  0  0  0  0  0  0
    8.6350   -2.3553    0.0000 F   0  0  0  0  0  0  0  0  0  0  0  0
   10.1365   -3.2188    0.0000 F   0  0  0  0  0  0  0  0  0  0  0  0
   15.3079   -2.3096    0.0000 O   0  0  0  0  0  0  0  0  0  0  0  0
    2.6200    6.2945    0.0000 O   0  0  0  0  0  0  0  0  0  0  0  0
   14.0743   -4.8459    0.0000 N   0  0  0  0  0  0  0  0  0  0  0  0
   12.7738   -3.8976    0.0000 N   0  0  0  0  0  0  0  0  0  0  0  0
   12.7089   -1.8142    0.0000 N   0  0  0  0  0  0  0  0  0  0  0  0
   12.6042   -0.8256    0.0000 N   0  0  0  0  0  0  0  0  0  0  0  0
   14.4392   -0.8112    0.0000 N   0  0  0  0  0  0  0  0  0  0  0  0
    6.1215    5.4346    0.0000 N   0  0  0  0  0  0  0  0  0  0  0  0
   15.4072    0.6850    0.0000 N   0  0  0  0  0  0  0  0  0  0  0  0
   14.8833   -5.4337    0.0000 C   0  0  0  0  0  0  0  0  0  0  0  0
   15.3833   -6.2997    0.0000 C   0  0  0  0  0  0  0  0  0  0  0  0
   14.3833   -6.2997    0.0000 C   0  0  0  0  0  0  0  0  0  0  0  0
   15.6923   -4.8459    0.0000 C   0  0  0  0  0  0  0  0  0  0  0  0
   15.3833   -3.8949    0.0000 C   0  0  0  0  0  0  0  0  0  0  0  0
   14.3833   -3.8949    0.0000 C   0  0  0  0  0  0  0  0  0  0  0  0
   13.0802   -4.8433    0.0000 C   0  0  0  0  0  0  0  0  0  0  0  0
   13.5775   -3.3126    0.0000 C   0  0  0  0  0  0  0  0  0  0  0  0
   13.5758   -2.3126    0.0000 C   0  0  3  0  0  0  0  0  0  0  0  0
   14.4410   -1.8112    0.0000 C   0  0  0  0  0  0  0  0  0  0  0  0
   11.8018   -2.2208    0.0000 C   0  0  0  0  0  0  0  0  0  0  0  0
   11.1335   -1.4850    0.0000 C   0  0  0  0  0  0  0  0  0  0  0  0
   11.6320   -0.6181    0.0000 C   0  0  0  0  0  0  0  0  0  0  0  0
    4.1215    5.4311    0.0000 C   0  0  0  0  0  0  0  0  0  0  0  0
    4.6200    6.2980    0.0000 C   0  0  0  0  0  0  0  0  0  0  0  0
    4.6230    4.5660    0.0000 C   0  0  0  0  0  0  0  0  0  0  0  0
   10.1335   -1.4867    0.0000 C   0  0  0  0  0  0  0  0  0  0  0  0
    5.6200    6.2997    0.0000 C   0  0  0  0  0  0  0  0  0  0  0  0
    5.6230    4.5677    0.0000 C   0  0  0  0  0  0  0  0  0  0  0  0
   11.1305    0.2471    0.0000 C   0  0  0  0  0  0  0  0  0  0  0  0
   15.3044   -0.3097    0.0000 C   0  0  0  0  0  0  0  0  0  0  0  0
    3.1215    5.4294    0.0000 C   0  0  0  0  0  0  0  0  0  0  0  0
    7.1215    5.4363    0.0000 C   0  0  0  0  0  0  0  0  0  0  0  0
   10.1305    0.2453    0.0000 C   0  0  0  0  0  0  0  0  0  0  0  0
    9.6320   -0.6215    0.0000 C   0  0  0  0  0  0  0  0  0  0  0  0
    9.6350   -2.3536    0.0000 C   0  0  0  0  0  0  0  0  0  0  0  0
   11.6290    1.1140    0.0000 C   0  0  0  0  0  0  0  0  0  0  0  0
    7.6230    4.5711    0.0000 C   0  0  0  0  0  0  0  0  0  0  0  0
    9.6290    1.1105    0.0000 C   0  0  0  0  0  0  0  0  0  0  0  0
   16.8865    0.0295    0.0000 C   0  0  0  0  0  0  0  0  0  0  0  0
   16.3850    0.8947    0.0000 C   0  0  0  0  0  0  0  0  0  0  0  0
    8.6230    4.5729    0.0000 C   0  0  0  0  0  0  0  0  0  0  0  0
    7.1245    3.7042    0.0000 C   0  0  0  0  0  0  0  0  0  0  0  0
    8.6260    2.8408    0.0000 C   0  0  0  0  0  0  0  0  0  0  0  0
    9.1245    3.7077    0.0000 C   0  0  0  0  0  0  0  0  0  0  0  0
    7.6260    2.8391    0.0000 C   0  0  0  0  0  0  0  0  0  0  0  0
    9.1275    1.9757    0.0000 C   0  0  0  0  0  0  0  0  0  0  0  0
   15.4909   -6.9103    0.0000 H   0  0  0  0  0  0  0  0  0  0  0  0
   15.9659   -6.0877    0.0000 H   0  0  0  0  0  0  0  0  0  0  0  0
   13.8007   -6.0877    0.0000 H   0  0  0  0  0  0  0  0  0  0  0  0
   14.2756   -6.9103    0.0000 H   0  0  0  0  0  0  0  0  0  0  0  0
   16.0023   -5.3828    0.0000 H   0  0  0  0  0  0  0  0  0  0  0  0
   16.2587   -4.5937    0.0000 H   0  0  0  0  0  0  0  0  0  0  0  0
   15.9897   -3.7660    0.0000 H   0  0  0  0  0  0  0  0  0  0  0  0
   15.3185   -3.2783    0.0000 H   0  0  0  0  0  0  0  0  0  0  0  0
   12.7149   -5.3443    0.0000 H   0  0  0  0  0  0  0  0  0  0  0  0
   13.5747   -1.6926    0.0000 H   0  0  0  0  0  0  0  0  0  0  0  0
   11.6750   -2.8277    0.0000 H   0  0  0  0  0  0  0  0  0  0  0  0
   13.9018   -0.5021    0.0000 H   0  0  0  0  0  0  0  0  0  0  0  0
    3.8106    5.9675    0.0000 H   0  0  0  0  0  0  0  0  0  0  0  0
    4.7266    6.9088    0.0000 H   0  0  0  0  0  0  0  0  0  0  0  0
    4.0370    6.5090    0.0000 H   0  0  0  0  0  0  0  0  0  0  0  0
    4.0408    4.3529    0.0000 H   0  0  0  0  0  0  0  0  0  0  0  0
    4.7317    3.9556    0.0000 H   0  0  0  0  0  0  0  0  0  0  0  0
    6.2022    6.5128    0.0000 H   0  0  0  0  0  0  0  0  0  0  0  0
    5.5113    6.9101    0.0000 H   0  0  0  0  0  0  0  0  0  0  0  0
    5.5164    3.9569    0.0000 H   0  0  0  0  0  0  0  0  0  0  0  0
    6.2060    4.3566    0.0000 H   0  0  0  0  0  0  0  0  0  0  0  0
    2.5393    5.2163    0.0000 H   0  0  0  0  0  0  0  0  0  0  0  0
    3.2302    4.8190    0.0000 H   0  0  0  0  0  0  0  0  0  0  0  0
    7.7037    5.6494    0.0000 H   0  0  0  0  0  0  0  0  0  0  0  0
    7.0128    6.0467    0.0000 H   0  0  0  0  0  0  0  0  0  0  0  0
    9.0120   -0.6226    0.0000 H   0  0  0  0  0  0  0  0  0  0  0  0
    9.3259   -2.8911    0.0000 H   0  0  0  0  0  0  0  0  0  0  0  0
   12.1664    0.8049    0.0000 H   0  0  0  0  0  0  0  0  0  0  0  0
   11.9380    1.6514    0.0000 H   0  0  0  0  0  0  0  0  0  0  0  0
   11.0915    1.4230    0.0000 H   0  0  0  0  0  0  0  0  0  0  0  0
    2.0000    6.2935    0.0000 H   0  0  0  0  0  0  0  0  0  0  0  0
   17.5032   -0.0342    0.0000 H   0  0  0  0  0  0  0  0  0  0  0  0
   16.6362    1.4615    0.0000 H   0  0  0  0  0  0  0  0  0  0  0  0
    8.9321    5.1103    0.0000 H   0  0  0  0  0  0  0  0  0  0  0  0
    6.5045    3.7032    0.0000 H   0  0  0  0  0  0  0  0  0  0  0  0
    9.7445    3.7088    0.0000 H   0  0  0  0  0  0  0  0  0  0  0  0
    7.3169    2.3016    0.0000 H   0  0  0  0  0  0  0  0  0  0  0  0
  1 33  1  0  0  0  0
  1 42  1  0  0  0  0
  2 38  1  0  0  0  0
  3 38  1  0  0  0  0
  4 22  2  0  0  0  0
  5 34  1  0  0  0  0
  5 80  1  0  0  0  0
  6 13  1  0  0  0  0
  6 18  1  0  0  0  0
  6 19  1  0  0  0  0
  7 19  2  0  0  0  0
  7 20  1  0  0  0  0
  8  9  1  0  0  0  0
  8 21  1  0  0  0  0
  8 23  1  0  0  0  0
  9 25  2  0  0  0  0
 10 22  1  0  0  0  0
 10 33  1  0  0  0  0
 10 61  1  0  0  0  0
 11 30  1  0  0  0  0
 11 31  1  0  0  0  0
 11 35  1  0  0  0  0
 12 33  2  0  0  0  0
 12 43  1  0  0  0  0
 13 14  1  0  0  0  0
 13 15  1  0  0  0  0
 13 16  1  0  0  0  0
 14 15  1  0  0  0  0
 14 50  1  0  0  0  0
 14 51  1  0  0  0  0
 15 52  1  0  0  0  0
 15 53  1  0  0  0  0
 16 17  1  0  0  0  0
 16 54  1  0  0  0  0
 16 55  1  0  0  0  0
 17 18  1  0  0  0  0
 17 56  1  0  0  0  0
 17 57  1  0  0  0  0
 18 20  2  0  0  0  0
 19 58  1  0  0  0  0
 20 21  1  0  0  0  0
 21 22  1  0  0  0  0
 21 59  1  0  0  0  0
 23 24  2  0  0  0  0
 23 60  1  0  0  0  0
 24 25  1  0  0  0  0
 24 29  1  0  0  0  0
 25 32  1  0  0  0  0
 26 27  1  0  0  0  0
 26 28  1  0  0  0  0
 26 34  1  0  0  0  0
 26 62  1  0  0  0  0
 27 30  1  0  0  0  0
 27 63  1  0  0  0  0
 27 64  1  0  0  0  0
 28 31  1  0  0  0  0
 28 65  1  0  0  0  0
 28 66  1  0  0  0  0
 29 37  2  0  0  0  0
 29 38  1  0  0  0  0
 30 67  1  0  0  0  0
 30 68  1  0  0  0  0
 31 69  1  0  0  0  0
 31 70  1  0  0  0  0
 32 36  2  0  0  0  0
 32 39  1  0  0  0  0
 34 71  1  0  0  0  0
 34 72  1  0  0  0  0
 35 40  1  0  0  0  0
 35 73  1  0  0  0  0
 35 74  1  0  0  0  0
 36 37  1  0  0  0  0
 36 41  1  0  0  0  0
 37 75  1  0  0  0  0
 38 76  1  0  0  0  0
 39 77  1  0  0  0  0
 39 78  1  0  0  0  0
 39 79  1  0  0  0  0
 40 44  2  0  0  0  0
 40 45  1  0  0  0  0
 41 49  3  0  0  0  0
 42 43  2  0  0  0  0
 42 81  1  0  0  0  0
 43 82  1  0  0  0  0
 44 47  1  0  0  0  0
 44 83  1  0  0  0  0
 45 48  2  0  0  0  0
 45 84  1  0  0  0  0
 46 47  2  0  0  0  0
 46 48  1  0  0  0  0
 46 49  1  0  0  0  0
 47 85  1  0  0  0  0
 48 86  1  0  0  0  0
M  END
> <PUBCHEM_COMPOUND_CID>
163388532

> <PUBCHEM_COMPOUND_CANONICALIZED>
1

> <PUBCHEM_CACTVS_COMPLEXITY>
1250

> <PUBCHEM_CACTVS_HBOND_ACCEPTOR>
9

> <PUBCHEM_CACTVS_HBOND_DONOR>
2

> <PUBCHEM_CACTVS_ROTATABLE_BOND>
10

> <PUBCHEM_CACTVS_SUBSKEYS>
AAADcfB/sYBAAAAAAAAAAAAAGAAAAWLFiwA8YIAAAAAWAFgB/gAAHwQYCAAADajl3ha/0ffMEgjuEzV3dAiS9K1xmrlZ2C24dJiIeLrA3fGU5AhsmQLIyCc8iMCOwAACQAASAACAAASAACQAAAAAAAAAAA==

> <PUBCHEM_IUPAC_OPENEYE_NAME>
2-[4-(difluoromethyl)-6-[2-[4-[[4-(hydroxymethyl)-1-piperidyl]methyl]phenyl]ethynyl]-7-methyl-indazol-2-yl]-2-spiro[6,7-dihydropyrrolo[1,2-c]imidazole-5,1'-cyclopropane]-1-yl-N-thiazol-2-yl-acetamide

> <PUBCHEM_IUPAC_CAS_NAME>
2-[4-(difluoromethyl)-6-[2-[4-[[4-(hydroxymethyl)-1-piperidinyl]methyl]phenyl]ethynyl]-7-methyl-2-indazolyl]-2-(1-spiro[6,7-dihydropyrrolo[1,2-c]imidazole-5,1'-cyclopropane]yl)-N-(2-thiazolyl)acetamide

> <PUBCHEM_IUPAC_NAME_MARKUP>
2-[4-(difluoromethyl)-6-[2-[4-[[4-(hydroxymethyl)piperidin-1-yl]methyl]phenyl]ethynyl]-7-methylindazol-2-yl]-2-spiro[6,7-dihydropyrrolo[1,2-c]imidazole-5,1&apos;-cyclopropane]-1-yl-<I>N</I>-(1,3-thiazol-2-yl)acetamide

> <PUBCHEM_IUPAC_NAME>
2-[4-(difluoromethyl)-6-[2-[4-[[4-(hydroxymethyl)piperidin-1-yl]methyl]phenyl]ethynyl]-7-methylindazol-2-yl]-2-spiro[6,7-dihydropyrrolo[1,2-c]imidazole-5,1'-cyclopropane]-1-yl-N-(1,3-thiazol-2-yl)acetamide

> <PUBCHEM_IUPAC_SYSTEMATIC_NAME>
2-[4-[bis(fluoranyl)methyl]-6-[2-[4-[[4-(hydroxymethyl)piperidin-1-yl]methyl]phenyl]ethynyl]-7-methyl-indazol-2-yl]-2-spiro[6,7-dihydropyrrolo[1,2-c]imidazole-5,1'-cyclopropane]-1-yl-N-(1,3-thiazol-2-yl)ethanamide

> <PUBCHEM_IUPAC_TRADITIONAL_NAME>
2-[4-(difluoromethyl)-7-methyl-6-[2-[4-[(4-methylolpiperidino)methyl]phenyl]ethynyl]indazol-2-yl]-2-spiro[6,7-dihydropyrrol[1,2-c]imidazole-5,1'-cyclopropane]-1-yl-N-thiazol-2-yl-acetamide

> <PUBCHEM_IUPAC_INCHI>
InChI=1S/C37H37F2N7O2S/c1-23-27(7-6-24-2-4-25(5-3-24)19-44-15-9-26(21-47)10-16-44)18-28(34(38)39)29-20-46(43-31(23)29)33(35(48)42-36-40-14-17-49-36)32-30-8-11-37(12-13-37)45(30)22-41-32/h2-5,14,17-18,20,22,26,33-34,47H,8-13,15-16,19,21H2,1H3,(H,40,42,48)

> <PUBCHEM_IUPAC_INCHIKEY>
XGCQKFFIRIFVIZ-UHFFFAOYSA-N

> <PUBCHEM_XLOGP3_AA>
5.4

> <PUBCHEM_EXACT_MASS>
681.26975095

> <PUBCHEM_MOLECULAR_FORMULA>
C37H37F2N7O2S

> <PUBCHEM_MOLECULAR_WEIGHT>
681.8

> <PUBCHEM_OPENEYE_CAN_SMILES>
CC1=C(C=C(C2=CN(N=C12)C(C3=C4CCC5(N4C=N3)CC5)C(=O)NC6=NC=CS6)C(F)F)C#CC7=CC=C(C=C7)CN8CCC(CC8)CO

> <PUBCHEM_OPENEYE_ISO_SMILES>
CC1=C(C=C(C2=CN(N=C12)C(C3=C4CCC5(N4C=N3)CC5)C(=O)NC6=NC=CS6)C(F)F)C#CC7=CC=C(C=C7)CN8CCC(CC8)CO

> <PUBCHEM_CACTVS_TPSA>
129

> <PUBCHEM_MONOISOTOPIC_WEIGHT>
681.26975095

> <PUBCHEM_TOTAL_CHARGE>
0

> <PUBCHEM_HEAVY_ATOM_COUNT>
49

> <PUBCHEM_ATOM_DEF_STEREO_COUNT>
0

> <PUBCHEM_ATOM_UDEF_STEREO_COUNT>
1

> <PUBCHEM_BOND_DEF_STEREO_COUNT>
0

> <PUBCHEM_BOND_UDEF_STEREO_COUNT>
0

> <PUBCHEM_ISOTOPIC_ATOM_COUNT>
0

> <PUBCHEM_COMPONENT_COUNT>
1

> <PUBCHEM_CACTVS_TAUTO_COUNT>
-1

> <PUBCHEM_COORDINATE_TYPE>
1
5
255

> <PUBCHEM_BONDANNOTATIONS>
1  33  8
1  42  8
12  33  8
12  43  8
18  20  8
21  22  3
23  24  8
24  25  8
24  29  8
25  32  8
29  37  8
32  36  8
36  37  8
40  44  8
40  45  8
42  43  8
44  47  8
45  48  8
46  47  8
46  48  8
6  18  8
6  19  8
7  19  8
7  20  8
8  23  8
8  9  8
9  25  8

$$$$
