155534666
  -OEChem-09292322082D

183187  0     1  0  0  0  0  0999 V2000
    2.0000    0.5310    0.0000 F   0  0  0  0  0  0  0  0  0  0  0  0
   11.2788    0.5030    0.0000 O   0  0  0  0  0  0  0  0  0  0  0  0
    6.5000   -0.3350    0.0000 O   0  0  0  0  0  0  0  0  0  0  0  0
   18.5155    0.6321    0.0000 O   0  0  0  0  0  0  0  0  0  0  0  0
   20.8381   -2.1257    0.0000 O   0  0  0  0  0  0  0  0  0  0  0  0
   25.3013   -1.0866    0.0000 O   0  0  0  0  0  0  0  0  0  0  0  0
   27.8328   -1.8554    0.0000 O   0  0  0  0  0  0  0  0  0  0  0  0
   30.4690   -1.6297    0.0000 O   0  0  0  0  0  0  0  0  0  0  0  0
   41.8224   -1.3148    0.0000 O   0  0  0  0  0  0  0  0  0  0  0  0
   34.6186   -3.5741    0.0000 O   0  0  0  0  0  0  0  0  0  0  0  0
   36.6547   -0.7716    0.0000 O   0  0  0  0  0  0  0  0  0  0  0  0
   37.0456   -5.3375    0.0000 O   0  0  0  0  0  0  0  0  0  0  0  0
   44.3540   -2.0836    0.0000 O   0  0  0  0  0  0  0  0  0  0  0  0
   38.0637   -3.9362    0.0000 O   0  0  0  0  0  0  0  0  0  0  0  0
   46.9901   -1.8579    0.0000 O   0  0  0  0  0  0  0  0  0  0  0  0
   51.1397   -3.8023    0.0000 O   0  0  0  0  0  0  0  0  0  0  0  0
   11.5878    3.0721    0.0000 N   0  0  3  0  0  0  0  0  0  0  0  0
    9.0000    2.2631    0.0000 N   0  0  0  0  0  0  0  0  0  0  0  0
   12.5388    1.7631    0.0000 N   0  0  0  0  0  0  0  0  0  0  0  0
   17.4975   -0.7691    0.0000 N   0  0  0  0  0  0  0  0  0  0  0  0
   21.8561   -0.7245    0.0000 N   0  0  0  0  0  0  0  0  0  0  0  0
   36.4457   -2.7606    0.0000 N   0  0  3  0  0  0  0  0  0  0  0  0
   33.9141   -1.9918    0.0000 N   0  0  0  0  0  0  0  0  0  0  0  0
   38.3773   -0.9527    0.0000 N   0  0  0  0  0  0  0  0  0  0  0  0
   50.4352   -2.2200    0.0000 N   0  0  0  0  0  0  0  0  0  0  0  0
   11.0000    2.2631    0.0000 C   0  0  0  0  0  0  0  0  0  0  0  0
   10.5000    3.1291    0.0000 C   0  0  0  0  0  0  0  0  0  0  0  0
   10.5000    1.3970    0.0000 C   0  0  0  0  0  0  0  0  0  0  0  0
    9.5000    3.1291    0.0000 C   0  0  0  0  0  0  0  0  0  0  0  0
    9.5000    1.3970    0.0000 C   0  0  0  0  0  0  0  0  0  0  0  0
   11.5878    1.4541    0.0000 C   0  0  0  0  0  0  0  0  0  0  0  0
   12.5388    2.7631    0.0000 C   0  0  0  0  0  0  0  0  0  0  0  0
    8.0000    2.2631    0.0000 C   0  0  0  0  0  0  0  0  0  0  0  0
   11.2788    4.0232    0.0000 C   0  0  0  0  0  0  0  0  0  0  0  0
   13.3479    1.1753    0.0000 C   0  0  0  0  0  0  0  0  0  0  0  0
    7.5000    1.3970    0.0000 C   0  0  0  0  0  0  0  0  0  0  0  0
   14.2614    1.5820    0.0000 C   0  0  0  0  0  0  0  0  0  0  0  0
   10.3006    4.2311    0.0000 C   0  0  0  0  0  0  0  0  0  0  0  0
   11.9479    4.7663    0.0000 C   0  0  0  0  0  0  0  0  0  0  0  0
    6.5000    1.3970    0.0000 C   0  0  0  0  0  0  0  0  0  0  0  0
   15.0704    0.9942    0.0000 C   0  0  0  0  0  0  0  0  0  0  0  0
    9.9916    5.1821    0.0000 C   0  0  0  0  0  0  0  0  0  0  0  0
   11.6389    5.7174    0.0000 C   0  0  0  0  0  0  0  0  0  0  0  0
   10.6607    5.9253    0.0000 C   0  0  0  0  0  0  0  0  0  0  0  0
    6.0000    0.5310    0.0000 C   0  0  0  0  0  0  0  0  0  0  0  0
   15.9840    1.4010    0.0000 C   0  0  0  0  0  0  0  0  0  0  0  0
   14.9659   -0.0003    0.0000 C   0  0  0  0  0  0  0  0  0  0  0  0
    5.0000    0.5310    0.0000 C   0  0  0  0  0  0  0  0  0  0  0  0
   16.7930    0.8132    0.0000 C   0  0  0  0  0  0  0  0  0  0  0  0
   15.7749   -0.5881    0.0000 C   0  0  0  0  0  0  0  0  0  0  0  0
   16.6885   -0.1813    0.0000 C   0  0  0  0  0  0  0  0  0  0  0  0
    4.5000   -0.3350    0.0000 C   0  0  0  0  0  0  0  0  0  0  0  0
    4.5000    1.3970    0.0000 C   0  0  0  0  0  0  0  0  0  0  0  0
    3.5000   -0.3350    0.0000 C   0  0  0  0  0  0  0  0  0  0  0  0
    3.5000    1.3970    0.0000 C   0  0  0  0  0  0  0  0  0  0  0  0
    3.0000    0.5310    0.0000 C   0  0  0  0  0  0  0  0  0  0  0  0
   18.4110   -0.3624    0.0000 C   0  0  0  0  0  0  0  0  0  0  0  0
   19.2200   -0.9502    0.0000 C   0  0  0  0  0  0  0  0  0  0  0  0
   20.1336   -0.5434    0.0000 C   0  0  0  0  0  0  0  0  0  0  0  0
   20.9426   -1.1312    0.0000 C   0  0  0  0  0  0  0  0  0  0  0  0
   22.6652   -1.3123    0.0000 C   0  0  0  0  0  0  0  0  0  0  0  0
   23.5787   -0.9055    0.0000 C   0  0  0  0  0  0  0  0  0  0  0  0
   24.3877   -1.4933    0.0000 C   0  0  0  0  0  0  0  0  0  0  0  0
   26.1103   -1.6744    0.0000 C   0  0  0  0  0  0  0  0  0  0  0  0
   27.0238   -1.2676    0.0000 C   0  0  0  0  0  0  0  0  0  0  0  0
   28.7464   -1.4487    0.0000 C   0  0  0  0  0  0  0  0  0  0  0  0
   29.5554   -2.0364    0.0000 C   0  0  0  0  0  0  0  0  0  0  0  0
   35.6366   -2.1729    0.0000 C   0  0  0  0  0  0  0  0  0  0  0  0
   37.3592   -2.3539    0.0000 C   0  0  0  0  0  0  0  0  0  0  0  0
   32.1915   -1.8108    0.0000 C   0  0  0  0  0  0  0  0  0  0  0  0
   33.0005   -2.3986    0.0000 C   0  0  0  0  0  0  0  0  0  0  0  0
   36.3411   -3.7552    0.0000 C   0  0  0  0  0  0  0  0  0  0  0  0
   31.2780   -2.2175    0.0000 C   0  0  0  0  0  0  0  0  0  0  0  0
   34.7231   -2.5796    0.0000 C   0  0  0  0  0  0  0  0  0  0  0  0
   39.1863   -1.5404    0.0000 C   0  0  0  0  0  0  0  0  0  0  0  0
   37.4637   -1.3594    0.0000 C   0  0  0  0  0  0  0  0  0  0  0  0
   40.0998   -1.1337    0.0000 C   0  0  0  0  0  0  0  0  0  0  0  0
   40.9089   -1.7215    0.0000 C   0  0  0  0  0  0  0  0  0  0  0  0
   37.1501   -4.3430    0.0000 C   0  0  0  0  0  0  0  0  0  0  0  0
   42.6314   -1.9025    0.0000 C   0  0  0  0  0  0  0  0  0  0  0  0
   43.5450   -1.4958    0.0000 C   0  0  0  0  0  0  0  0  0  0  0  0
   45.2675   -1.6768    0.0000 C   0  0  0  0  0  0  0  0  0  0  0  0
   46.0765   -2.2646    0.0000 C   0  0  0  0  0  0  0  0  0  0  0  0
   48.7127   -2.0389    0.0000 C   0  0  0  0  0  0  0  0  0  0  0  0
   47.7991   -2.4457    0.0000 C   0  0  0  0  0  0  0  0  0  0  0  0
   37.8546   -5.9253    0.0000 C   0  0  0  0  0  0  0  0  0  0  0  0
   49.5217   -2.6267    0.0000 C   0  0  0  0  0  0  0  0  0  0  0  0
   51.2442   -2.8078    0.0000 C   0  0  0  0  0  0  0  0  0  0  0  0
   52.1578   -2.4010    0.0000 C   0  0  0  0  0  0  0  0  0  0  0  0
   11.0826    3.3412    0.0000 H   0  0  0  0  0  0  0  0  0  0  0  0
   10.3923    3.7397    0.0000 H   0  0  0  0  0  0  0  0  0  0  0  0
   10.3923    0.7865    0.0000 H   0  0  0  0  0  0  0  0  0  0  0  0
   11.0826    1.1850    0.0000 H   0  0  0  0  0  0  0  0  0  0  0  0
    9.6077    3.7397    0.0000 H   0  0  0  0  0  0  0  0  0  0  0  0
    8.9174    3.3412    0.0000 H   0  0  0  0  0  0  0  0  0  0  0  0
    8.9174    1.1850    0.0000 H   0  0  0  0  0  0  0  0  0  0  0  0
    9.6077    0.7865    0.0000 H   0  0  0  0  0  0  0  0  0  0  0  0
   13.1554    2.6983    0.0000 H   0  0  0  0  0  0  0  0  0  0  0  0
   12.6677    3.3695    0.0000 H   0  0  0  0  0  0  0  0  0  0  0  0
    8.1077    2.8737    0.0000 H   0  0  0  0  0  0  0  0  0  0  0  0
    7.4174    2.4751    0.0000 H   0  0  0  0  0  0  0  0  0  0  0  0
   12.9019    0.7446    0.0000 H   0  0  0  0  0  0  0  0  0  0  0  0
   13.6946    0.6613    0.0000 H   0  0  0  0  0  0  0  0  0  0  0  0
    7.3923    0.7865    0.0000 H   0  0  0  0  0  0  0  0  0  0  0  0
    8.0826    1.1850    0.0000 H   0  0  0  0  0  0  0  0  0  0  0  0
   14.7074    2.0127    0.0000 H   0  0  0  0  0  0  0  0  0  0  0  0
   13.9147    2.0960    0.0000 H   0  0  0  0  0  0  0  0  0  0  0  0
    9.8858    3.7703    0.0000 H   0  0  0  0  0  0  0  0  0  0  0  0
   12.5544    4.6374    0.0000 H   0  0  0  0  0  0  0  0  0  0  0  0
    6.6077    2.0076    0.0000 H   0  0  0  0  0  0  0  0  0  0  0  0
    5.9174    1.6091    0.0000 H   0  0  0  0  0  0  0  0  0  0  0  0
    9.3852    5.3110    0.0000 H   0  0  0  0  0  0  0  0  0  0  0  0
   12.0537    6.1781    0.0000 H   0  0  0  0  0  0  0  0  0  0  0  0
   10.4691    6.5149    0.0000 H   0  0  0  0  0  0  0  0  0  0  0  0
   16.0488    2.0176    0.0000 H   0  0  0  0  0  0  0  0  0  0  0  0
   14.3995   -0.2525    0.0000 H   0  0  0  0  0  0  0  0  0  0  0  0
   17.3594    1.0654    0.0000 H   0  0  0  0  0  0  0  0  0  0  0  0
   15.7101   -1.2047    0.0000 H   0  0  0  0  0  0  0  0  0  0  0  0
    4.8100   -0.8719    0.0000 H   0  0  0  0  0  0  0  0  0  0  0  0
    4.8100    1.9340    0.0000 H   0  0  0  0  0  0  0  0  0  0  0  0
   17.4327   -1.3857    0.0000 H   0  0  0  0  0  0  0  0  0  0  0  0
    3.1900   -0.8719    0.0000 H   0  0  0  0  0  0  0  0  0  0  0  0
    3.1900    1.9340    0.0000 H   0  0  0  0  0  0  0  0  0  0  0  0
   18.7740   -1.3808    0.0000 H   0  0  0  0  0  0  0  0  0  0  0  0
   19.5667   -1.4642    0.0000 H   0  0  0  0  0  0  0  0  0  0  0  0
   20.5796   -0.1127    0.0000 H   0  0  0  0  0  0  0  0  0  0  0  0
   19.7869   -0.0294    0.0000 H   0  0  0  0  0  0  0  0  0  0  0  0
   21.9209   -0.1079    0.0000 H   0  0  0  0  0  0  0  0  0  0  0  0
   22.2192   -1.7430    0.0000 H   0  0  0  0  0  0  0  0  0  0  0  0
   23.0119   -1.8263    0.0000 H   0  0  0  0  0  0  0  0  0  0  0  0
   24.0247   -0.4748    0.0000 H   0  0  0  0  0  0  0  0  0  0  0  0
   23.2320   -0.3915    0.0000 H   0  0  0  0  0  0  0  0  0  0  0  0
   23.9417   -1.9240    0.0000 H   0  0  0  0  0  0  0  0  0  0  0  0
   24.7344   -2.0073    0.0000 H   0  0  0  0  0  0  0  0  0  0  0  0
   25.6643   -2.1050    0.0000 H   0  0  0  0  0  0  0  0  0  0  0  0
   26.4570   -2.1884    0.0000 H   0  0  0  0  0  0  0  0  0  0  0  0
   27.4698   -0.8369    0.0000 H   0  0  0  0  0  0  0  0  0  0  0  0
   26.6771   -0.7536    0.0000 H   0  0  0  0  0  0  0  0  0  0  0  0
   29.1924   -1.0180    0.0000 H   0  0  0  0  0  0  0  0  0  0  0  0
   28.3997   -0.9347    0.0000 H   0  0  0  0  0  0  0  0  0  0  0  0
   29.1094   -2.4671    0.0000 H   0  0  0  0  0  0  0  0  0  0  0  0
   29.9021   -2.5505    0.0000 H   0  0  0  0  0  0  0  0  0  0  0  0
   36.0826   -1.7422    0.0000 H   0  0  0  0  0  0  0  0  0  0  0  0
   35.2899   -1.6589    0.0000 H   0  0  0  0  0  0  0  0  0  0  0  0
   37.5092   -2.9555    0.0000 H   0  0  0  0  0  0  0  0  0  0  0  0
   37.9777   -2.3107    0.0000 H   0  0  0  0  0  0  0  0  0  0  0  0
   32.6375   -1.3801    0.0000 H   0  0  0  0  0  0  0  0  0  0  0  0
   31.8448   -1.2968    0.0000 H   0  0  0  0  0  0  0  0  0  0  0  0
   32.5545   -2.8292    0.0000 H   0  0  0  0  0  0  0  0  0  0  0  0
   33.3472   -2.9126    0.0000 H   0  0  0  0  0  0  0  0  0  0  0  0
   35.7451   -3.5843    0.0000 H   0  0  0  0  0  0  0  0  0  0  0  0
   36.0693   -4.3124    0.0000 H   0  0  0  0  0  0  0  0  0  0  0  0
   30.8320   -2.6482    0.0000 H   0  0  0  0  0  0  0  0  0  0  0  0
   31.6247   -2.7315    0.0000 H   0  0  0  0  0  0  0  0  0  0  0  0
   38.7403   -1.9711    0.0000 H   0  0  0  0  0  0  0  0  0  0  0  0
   39.5330   -2.0544    0.0000 H   0  0  0  0  0  0  0  0  0  0  0  0
   40.5458   -0.7030    0.0000 H   0  0  0  0  0  0  0  0  0  0  0  0
   39.7531   -0.6197    0.0000 H   0  0  0  0  0  0  0  0  0  0  0  0
   33.9789   -1.3752    0.0000 H   0  0  0  0  0  0  0  0  0  0  0  0
   38.4421   -0.3360    0.0000 H   0  0  0  0  0  0  0  0  0  0  0  0
   40.4629   -2.1522    0.0000 H   0  0  0  0  0  0  0  0  0  0  0  0
   41.2556   -2.2355    0.0000 H   0  0  0  0  0  0  0  0  0  0  0  0
   42.1854   -2.3332    0.0000 H   0  0  0  0  0  0  0  0  0  0  0  0
   42.9781   -2.4165    0.0000 H   0  0  0  0  0  0  0  0  0  0  0  0
   43.9910   -1.0651    0.0000 H   0  0  0  0  0  0  0  0  0  0  0  0
   43.1983   -0.9818    0.0000 H   0  0  0  0  0  0  0  0  0  0  0  0
   45.7135   -1.2462    0.0000 H   0  0  0  0  0  0  0  0  0  0  0  0
   44.9208   -1.1628    0.0000 H   0  0  0  0  0  0  0  0  0  0  0  0
   45.6306   -2.6953    0.0000 H   0  0  0  0  0  0  0  0  0  0  0  0
   46.4232   -2.7786    0.0000 H   0  0  0  0  0  0  0  0  0  0  0  0
   49.1586   -1.6083    0.0000 H   0  0  0  0  0  0  0  0  0  0  0  0
   48.3660   -1.5249    0.0000 H   0  0  0  0  0  0  0  0  0  0  0  0
   47.3531   -2.8764    0.0000 H   0  0  0  0  0  0  0  0  0  0  0  0
   48.1458   -2.9597    0.0000 H   0  0  0  0  0  0  0  0  0  0  0  0
   37.4902   -6.4268    0.0000 H   0  0  0  0  0  0  0  0  0  0  0  0
   38.3562   -6.2897    0.0000 H   0  0  0  0  0  0  0  0  0  0  0  0
   38.2191   -5.4237    0.0000 H   0  0  0  0  0  0  0  0  0  0  0  0
   49.0757   -3.0574    0.0000 H   0  0  0  0  0  0  0  0  0  0  0  0
   49.8684   -3.1407    0.0000 H   0  0  0  0  0  0  0  0  0  0  0  0
   50.5000   -1.6034    0.0000 H   0  0  0  0  0  0  0  0  0  0  0  0
   52.4100   -2.9674    0.0000 H   0  0  0  0  0  0  0  0  0  0  0  0
   52.7242   -2.1489    0.0000 H   0  0  0  0  0  0  0  0  0  0  0  0
   51.9056   -1.8346    0.0000 H   0  0  0  0  0  0  0  0  0  0  0  0
  1 56  1  0  0  0  0
  2 31  2  0  0  0  0
  3 45  2  0  0  0  0
  4 57  2  0  0  0  0
  5 60  2  0  0  0  0
  6 63  1  0  0  0  0
  6 64  1  0  0  0  0
  7 65  1  0  0  0  0
  7 66  1  0  0  0  0
  8 67  1  0  0  0  0
  8 73  1  0  0  0  0
  9 78  1  0  0  0  0
  9 80  1  0  0  0  0
 10 74  2  0  0  0  0
 11 76  2  0  0  0  0
 12 79  1  0  0  0  0
 12 86  1  0  0  0  0
 13 81  1  0  0  0  0
 13 82  1  0  0  0  0
 14 79  2  0  0  0  0
 15 83  1  0  0  0  0
 15 85  1  0  0  0  0
 16 88  2  0  0  0  0
 17 26  1  0  0  0  0
 17 32  1  0  0  0  0
 17 34  1  0  0  0  0
 18 29  1  0  0  0  0
 18 30  1  0  0  0  0
 18 33  1  0  0  0  0
 19 31  1  0  0  0  0
 19 32  1  0  0  0  0
 19 35  1  0  0  0  0
 20 51  1  0  0  0  0
 20 57  1  0  0  0  0
 20121  1  0  0  0  0
 21 60  1  0  0  0  0
 21 61  1  0  0  0  0
 21128  1  0  0  0  0
 22 68  1  0  0  0  0
 22 69  1  0  0  0  0
 22 72  1  0  0  0  0
 23 71  1  0  0  0  0
 23 74  1  0  0  0  0
 23159  1  0  0  0  0
 24 75  1  0  0  0  0
 24 76  1  0  0  0  0
 24160  1  0  0  0  0
 25 87  1  0  0  0  0
 25 88  1  0  0  0  0
 25180  1  0  0  0  0
 26 27  1  0  0  0  0
 26 28  1  0  0  0  0
 26 31  1  0  0  0  0
 27 29  1  0  0  0  0
 27 90  1  0  0  0  0
 27 91  1  0  0  0  0
 28 30  1  0  0  0  0
 28 92  1  0  0  0  0
 28 93  1  0  0  0  0
 29 94  1  0  0  0  0
 29 95  1  0  0  0  0
 30 96  1  0  0  0  0
 30 97  1  0  0  0  0
 32 98  1  0  0  0  0
 32 99  1  0  0  0  0
 33 36  1  0  0  0  0
 33100  1  0  0  0  0
 33101  1  0  0  0  0
 34 38  2  0  0  0  0
 34 39  1  0  0  0  0
 35 37  1  0  0  0  0
 35102  1  0  0  0  0
 35103  1  0  0  0  0
 36 40  1  0  0  0  0
 36104  1  0  0  0  0
 36105  1  0  0  0  0
 37 41  1  0  0  0  0
 37106  1  0  0  0  0
 37107  1  0  0  0  0
 38 42  1  0  0  0  0
 38108  1  0  0  0  0
 39 43  2  0  0  0  0
 39109  1  0  0  0  0
 40 45  1  0  0  0  0
 40110  1  0  0  0  0
 40111  1  0  0  0  0
 41 46  2  0  0  0  0
 41 47  1  0  0  0  0
 42 44  2  0  0  0  0
 42112  1  0  0  0  0
 43 44  1  0  0  0  0
 43113  1  0  0  0  0
 44114  1  0  0  0  0
 45 48  1  0  0  0  0
 46 49  1  0  0  0  0
 46115  1  0  0  0  0
 47 50  2  0  0  0  0
 47116  1  0  0  0  0
 48 52  2  0  0  0  0
 48 53  1  0  0  0  0
 49 51  2  0  0  0  0
 49117  1  0  0  0  0
 50 51  1  0  0  0  0
 50118  1  0  0  0  0
 52 54  1  0  0  0  0
 52119  1  0  0  0  0
 53 55  2  0  0  0  0
 53120  1  0  0  0  0
 54 56  2  0  0  0  0
 54122  1  0  0  0  0
 55 56  1  0  0  0  0
 55123  1  0  0  0  0
 57 58  1  0  0  0  0
 58 59  1  0  0  0  0
 58124  1  0  0  0  0
 58125  1  0  0  0  0
 59 60  1  0  0  0  0
 59126  1  0  0  0  0
 59127  1  0  0  0  0
 61 62  1  0  0  0  0
 61129  1  0  0  0  0
 61130  1  0  0  0  0
 62 63  1  0  0  0  0
 62131  1  0  0  0  0
 62132  1  0  0  0  0
 63133  1  0  0  0  0
 63134  1  0  0  0  0
 64 65  1  0  0  0  0
 64135  1  0  0  0  0
 64136  1  0  0  0  0
 65137  1  0  0  0  0
 65138  1  0  0  0  0
 66 67  1  0  0  0  0
 66139  1  0  0  0  0
 66140  1  0  0  0  0
 67141  1  0  0  0  0
 67142  1  0  0  0  0
 68 74  1  0  0  0  0
 68143  1  0  0  0  0
 68144  1  0  0  0  0
 69 76  1  0  0  0  0
 69145  1  0  0  0  0
 69146  1  0  0  0  0
 70 71  1  0  0  0  0
 70 73  1  0  0  0  0
 70147  1  0  0  0  0
 70148  1  0  0  0  0
 71149  1  0  0  0  0
 71150  1  0  0  0  0
 72 79  1  0  0  0  0
 72151  1  0  0  0  0
 72152  1  0  0  0  0
 73153  1  0  0  0  0
 73154  1  0  0  0  0
 75 77  1  0  0  0  0
 75155  1  0  0  0  0
 75156  1  0  0  0  0
 77 78  1  0  0  0  0
 77157  1  0  0  0  0
 77158  1  0  0  0  0
 78161  1  0  0  0  0
 78162  1  0  0  0  0
 80 81  1  0  0  0  0
 80163  1  0  0  0  0
 80164  1  0  0  0  0
 81165  1  0  0  0  0
 81166  1  0  0  0  0
 82 83  1  0  0  0  0
 82167  1  0  0  0  0
 82168  1  0  0  0  0
 83169  1  0  0  0  0
 83170  1  0  0  0  0
 84 85  1  0  0  0  0
 84 87  1  0  0  0  0
 84171  1  0  0  0  0
 84172  1  0  0  0  0
 85173  1  0  0  0  0
 85174  1  0  0  0  0
 86175  1  0  0  0  0
 86176  1  0  0  0  0
 86177  1  0  0  0  0
 87178  1  0  0  0  0
 87179  1  0  0  0  0
 88 89  1  0  0  0  0
 89181  1  0  0  0  0
 89182  1  0  0  0  0
 89183  1  0  0  0  0
M  END
> <PUBCHEM_COMPOUND_CID>
155534666

> <PUBCHEM_COMPOUND_CANONICALIZED>
1

> <PUBCHEM_CACTVS_COMPLEXITY>
2050

> <PUBCHEM_CACTVS_HBOND_ACCEPTOR>
19

> <PUBCHEM_CACTVS_HBOND_DONOR>
5

> <PUBCHEM_CACTVS_ROTATABLE_BOND>
48

> <PUBCHEM_CACTVS_SUBSKEYS>
AAADcfB//QAAAAAAAAAAAAAAAAAAAWAAAAA8YMEAAAAAAAABUAAAHwAQAAAADIzhmA4zyIPABACIAqXSWACCAAAlAgAIiIGIZMiLYDLA1bGXIQhqlwLayacdiICOCAAAAAAAAAAQAAAAAAAAAAAAAAAAAA==

> <PUBCHEM_IUPAC_OPENEYE_NAME>
methyl 2-[[2-[3-[2-[2-(3-acetamidopropoxy)ethoxy]ethoxy]propylamino]-2-oxo-ethyl]-[2-[3-[2-[2-[3-[[4-[4-[2-[8-[4-(4-fluorophenyl)-4-oxo-butyl]-4-oxo-1-phenyl-1,3,8-triazaspiro[4.5]decan-3-yl]ethyl]anilino]-4-oxo-butanoyl]amino]propoxy]ethoxy]ethoxy]propylamino]-2-oxo-ethyl]amino]acetate

> <PUBCHEM_IUPAC_CAS_NAME>
2-[[2-[3-[2-[2-(3-acetamidopropoxy)ethoxy]ethoxy]propylamino]-2-oxoethyl]-[2-[3-[2-[2-[3-[[4-[4-[2-[8-[4-(4-fluorophenyl)-4-oxobutyl]-4-oxo-1-phenyl-1,3,8-triazaspiro[4.5]decan-3-yl]ethyl]anilino]-1,4-dioxobutyl]amino]propoxy]ethoxy]ethoxy]propylamino]-2-oxoethyl]amino]acetic acid methyl ester

> <PUBCHEM_IUPAC_NAME_MARKUP>
methyl 2-[[2-[3-[2-[2-(3-acetamidopropoxy)ethoxy]ethoxy]propylamino]-2-oxoethyl]-[2-[3-[2-[2-[3-[[4-[4-[2-[8-[4-(4-fluorophenyl)-4-oxobutyl]-4-oxo-1-phenyl-1,3,8-triazaspiro[4.5]decan-3-yl]ethyl]anilino]-4-oxobutanoyl]amino]propoxy]ethoxy]ethoxy]propylamino]-2-oxoethyl]amino]acetate

> <PUBCHEM_IUPAC_NAME>
methyl 2-[[2-[3-[2-[2-(3-acetamidopropoxy)ethoxy]ethoxy]propylamino]-2-oxoethyl]-[2-[3-[2-[2-[3-[[4-[4-[2-[8-[4-(4-fluorophenyl)-4-oxobutyl]-4-oxo-1-phenyl-1,3,8-triazaspiro[4.5]decan-3-yl]ethyl]anilino]-4-oxobutanoyl]amino]propoxy]ethoxy]ethoxy]propylamino]-2-oxoethyl]amino]acetate

> <PUBCHEM_IUPAC_SYSTEMATIC_NAME>
methyl 2-[[2-[3-[2-[2-(3-acetamidopropoxy)ethoxy]ethoxy]propylamino]-2-oxidanylidene-ethyl]-[2-[3-[2-[2-[3-[[4-[[4-[2-[8-[4-(4-fluorophenyl)-4-oxidanylidene-butyl]-4-oxidanylidene-1-phenyl-1,3,8-triazaspiro[4.5]decan-3-yl]ethyl]phenyl]amino]-4-oxidanylidene-butanoyl]amino]propoxy]ethoxy]ethoxy]propylamino]-2-oxidanylidene-ethyl]amino]ethanoate

> <PUBCHEM_IUPAC_TRADITIONAL_NAME>
2-[[2-[3-[2-[2-(3-acetamidopropoxy)ethoxy]ethoxy]propylamino]-2-keto-ethyl]-[2-[3-[2-[2-[3-[[4-[4-[2-[8-[4-(4-fluorophenyl)-4-keto-butyl]-4-keto-1-phenyl-1,3,8-triazaspiro[4.5]decan-3-yl]ethyl]anilino]-4-keto-butanoyl]amino]propoxy]ethoxy]ethoxy]propylamino]-2-keto-ethyl]amino]acetic acid methyl ester

> <PUBCHEM_IUPAC_INCHI>
InChI=1S/C64H94FN9O15/c1-51(75)66-27-7-35-84-39-43-88-45-41-86-37-9-29-68-60(79)47-72(49-62(81)83-2)48-61(80)69-30-10-38-87-42-46-89-44-40-85-36-8-28-67-58(77)22-23-59(78)70-55-20-14-52(15-21-55)24-32-73-50-74(56-11-4-3-5-12-56)64(63(73)82)25-33-71(34-26-64)31-6-13-57(76)53-16-18-54(65)19-17-53/h3-5,11-12,14-21H,6-10,13,22-50H2,1-2H3,(H,66,75)(H,67,77)(H,68,79)(H,69,80)(H,70,78)

> <PUBCHEM_IUPAC_INCHIKEY>
FGTLGHYVSPYVRG-UHFFFAOYSA-N

> <PUBCHEM_XLOGP3_AA>
2.4

> <PUBCHEM_EXACT_MASS>
1247.68534149

> <PUBCHEM_MOLECULAR_FORMULA>
C64H94FN9O15

> <PUBCHEM_MOLECULAR_WEIGHT>
1248.5

> <PUBCHEM_OPENEYE_CAN_SMILES>
CC(=O)NCCCOCCOCCOCCCNC(=O)CN(CC(=O)NCCCOCCOCCOCCCNC(=O)CCC(=O)NC1=CC=C(C=C1)CCN2CN(C3(C2=O)CCN(CC3)CCCC(=O)C4=CC=C(C=C4)F)C5=CC=CC=C5)CC(=O)OC

> <PUBCHEM_OPENEYE_ISO_SMILES>
CC(=O)NCCCOCCOCCOCCCNC(=O)CN(CC(=O)NCCCOCCOCCOCCCNC(=O)CCC(=O)NC1=CC=C(C=C1)CCN2CN(C3(C2=O)CCN(CC3)CCCC(=O)C4=CC=C(C=C4)F)C5=CC=CC=C5)CC(=O)OC

> <PUBCHEM_CACTVS_TPSA>
274

> <PUBCHEM_MONOISOTOPIC_WEIGHT>
1247.68534149

> <PUBCHEM_TOTAL_CHARGE>
0

> <PUBCHEM_HEAVY_ATOM_COUNT>
89

> <PUBCHEM_ATOM_DEF_STEREO_COUNT>
0

> <PUBCHEM_ATOM_UDEF_STEREO_COUNT>
0

> <PUBCHEM_BOND_DEF_STEREO_COUNT>
0

> <PUBCHEM_BOND_UDEF_STEREO_COUNT>
0

> <PUBCHEM_ISOTOPIC_ATOM_COUNT>
0

> <PUBCHEM_COMPONENT_COUNT>
1

> <PUBCHEM_CACTVS_TAUTO_COUNT>
-1

> <PUBCHEM_COORDINATE_TYPE>
1
5
255

> <PUBCHEM_BONDANNOTATIONS>
34  38  8
34  39  8
38  42  8
39  43  8
41  46  8
41  47  8
42  44  8
43  44  8
46  49  8
47  50  8
48  52  8
48  53  8
49  51  8
50  51  8
52  54  8
53  55  8
54  56  8
55  56  8

$$$$
