44370047
  -OEChem-09292322222D

 45 48  0     0  0  0  0  0  0999 V2000
   13.7619    0.6970    0.0000 Cl  0  0  0  0  0  0  0  0  0  0  0  0
    7.7619    0.6970    0.0000 N   0  0  0  0  0  0  0  0  0  0  0  0
    9.7619    0.6970    0.0000 N   0  0  0  0  0  0  0  0  0  0  0  0
    4.6783   -0.9737    0.0000 N   0  0  0  0  0  0  0  0  0  0  0  0
    2.8660   -1.1690    0.0000 N   0  0  0  0  0  0  0  0  0  0  0  0
    8.2619   -0.1690    0.0000 C   0  0  0  0  0  0  0  0  0  0  0  0
    8.2619    1.5630    0.0000 C   0  0  0  0  0  0  0  0  0  0  0  0
    9.2619   -0.1690    0.0000 C   0  0  0  0  0  0  0  0  0  0  0  0
    9.2619    1.5630    0.0000 C   0  0  0  0  0  0  0  0  0  0  0  0
    6.7619    0.6970    0.0000 C   0  0  0  0  0  0  0  0  0  0  0  0
    6.2619   -0.1690    0.0000 C   0  0  0  0  0  0  0  0  0  0  0  0
   10.7619    0.6970    0.0000 C   0  0  0  0  0  0  0  0  0  0  0  0
    5.2619   -0.1690    0.0000 C   0  0  0  0  0  0  0  0  0  0  0  0
    4.6783    0.6357    0.0000 C   0  0  0  0  0  0  0  0  0  0  0  0
   11.2619   -0.1690    0.0000 C   0  0  0  0  0  0  0  0  0  0  0  0
   11.2619    1.5630    0.0000 C   0  0  0  0  0  0  0  0  0  0  0  0
    3.7320    0.3310    0.0000 C   0  0  0  0  0  0  0  0  0  0  0  0
    3.7320   -0.6690    0.0000 C   0  0  0  0  0  0  0  0  0  0  0  0
   12.2619   -0.1690    0.0000 C   0  0  0  0  0  0  0  0  0  0  0  0
   12.2619    1.5630    0.0000 C   0  0  0  0  0  0  0  0  0  0  0  0
    2.8660    0.8310    0.0000 C   0  0  0  0  0  0  0  0  0  0  0  0
   12.7619    0.6970    0.0000 C   0  0  0  0  0  0  0  0  0  0  0  0
    2.0000    0.3310    0.0000 C   0  0  0  0  0  0  0  0  0  0  0  0
    2.0000   -0.6690    0.0000 C   0  0  0  0  0  0  0  0  0  0  0  0
    7.6793   -0.3811    0.0000 H   0  0  0  0  0  0  0  0  0  0  0  0
    8.3695   -0.7796    0.0000 H   0  0  0  0  0  0  0  0  0  0  0  0
    8.3695    2.1736    0.0000 H   0  0  0  0  0  0  0  0  0  0  0  0
    7.6793    1.7751    0.0000 H   0  0  0  0  0  0  0  0  0  0  0  0
    9.1542   -0.7796    0.0000 H   0  0  0  0  0  0  0  0  0  0  0  0
    9.8445   -0.3810    0.0000 H   0  0  0  0  0  0  0  0  0  0  0  0
    9.8445    1.7751    0.0000 H   0  0  0  0  0  0  0  0  0  0  0  0
    9.1542    2.1736    0.0000 H   0  0  0  0  0  0  0  0  0  0  0  0
    6.8695    1.3076    0.0000 H   0  0  0  0  0  0  0  0  0  0  0  0
    6.1793    0.9091    0.0000 H   0  0  0  0  0  0  0  0  0  0  0  0
    6.1542   -0.7796    0.0000 H   0  0  0  0  0  0  0  0  0  0  0  0
    6.8445   -0.3810    0.0000 H   0  0  0  0  0  0  0  0  0  0  0  0
    4.8709    1.2251    0.0000 H   0  0  0  0  0  0  0  0  0  0  0  0
    4.8709   -1.5630    0.0000 H   0  0  0  0  0  0  0  0  0  0  0  0
   10.9519   -0.7059    0.0000 H   0  0  0  0  0  0  0  0  0  0  0  0
   10.9519    2.1000    0.0000 H   0  0  0  0  0  0  0  0  0  0  0  0
   12.5719   -0.7059    0.0000 H   0  0  0  0  0  0  0  0  0  0  0  0
   12.5719    2.1000    0.0000 H   0  0  0  0  0  0  0  0  0  0  0  0
    2.8660    1.4510    0.0000 H   0  0  0  0  0  0  0  0  0  0  0  0
    1.4631    0.6410    0.0000 H   0  0  0  0  0  0  0  0  0  0  0  0
    1.4631   -0.9790    0.0000 H   0  0  0  0  0  0  0  0  0  0  0  0
  1 22  1  0  0  0  0
  2  6  1  0  0  0  0
  2  7  1  0  0  0  0
  2 10  1  0  0  0  0
  3  8  1  0  0  0  0
  3  9  1  0  0  0  0
  3 12  1  0  0  0  0
  4 13  1  0  0  0  0
  4 18  1  0  0  0  0
  4 38  1  0  0  0  0
  5 18  1  0  0  0  0
  5 24  2  0  0  0  0
  6  8  1  0  0  0  0
  6 25  1  0  0  0  0
  6 26  1  0  0  0  0
  7  9  1  0  0  0  0
  7 27  1  0  0  0  0
  7 28  1  0  0  0  0
  8 29  1  0  0  0  0
  8 30  1  0  0  0  0
  9 31  1  0  0  0  0
  9 32  1  0  0  0  0
 10 11  1  0  0  0  0
 10 33  1  0  0  0  0
 10 34  1  0  0  0  0
 11 13  1  0  0  0  0
 11 35  1  0  0  0  0
 11 36  1  0  0  0  0
 12 15  2  0  0  0  0
 12 16  1  0  0  0  0
 13 14  2  0  0  0  0
 14 17  1  0  0  0  0
 14 37  1  0  0  0  0
 15 19  1  0  0  0  0
 15 39  1  0  0  0  0
 16 20  2  0  0  0  0
 16 40  1  0  0  0  0
 17 18  2  0  0  0  0
 17 21  1  0  0  0  0
 19 22  2  0  0  0  0
 19 41  1  0  0  0  0
 20 22  1  0  0  0  0
 20 42  1  0  0  0  0
 21 23  2  0  0  0  0
 21 43  1  0  0  0  0
 23 24  1  0  0  0  0
 23 44  1  0  0  0  0
 24 45  1  0  0  0  0
M  END
> <PUBCHEM_COMPOUND_CID>
44370047

> <PUBCHEM_COMPOUND_CANONICALIZED>
1

> <PUBCHEM_CACTVS_COMPLEXITY>
391

> <PUBCHEM_CACTVS_HBOND_ACCEPTOR>
3

> <PUBCHEM_CACTVS_HBOND_DONOR>
1

> <PUBCHEM_CACTVS_ROTATABLE_BOND>
4

> <PUBCHEM_CACTVS_SUBSKEYS>
AAADceB7gAAEAAAAAAAAAAAAAAAAAWAAAAA8WIAAAAAAAFgB/AAAHAIQAAAADArBHyQ98N/JkACgAzZnZACCgCmxB6AJ2SA4ZpiIaOLB25GUIAhokALIyCcQgIAOAABAAAAAAAAAAIAAAAAAAAAAAAAAAA==

> <PUBCHEM_IUPAC_OPENEYE_NAME>
2-[2-[4-(4-chlorophenyl)piperazin-1-yl]ethyl]-1H-pyrrolo[2,3-b]pyridine

> <PUBCHEM_IUPAC_CAS_NAME>
2-[2-[4-(4-chlorophenyl)-1-piperazinyl]ethyl]-1H-pyrrolo[2,3-b]pyridine

> <PUBCHEM_IUPAC_NAME_MARKUP>
2-[2-[4-(4-chlorophenyl)piperazin-1-yl]ethyl]-1<I>H</I>-pyrrolo[2,3-b]pyridine

> <PUBCHEM_IUPAC_NAME>
2-[2-[4-(4-chlorophenyl)piperazin-1-yl]ethyl]-1H-pyrrolo[2,3-b]pyridine

> <PUBCHEM_IUPAC_SYSTEMATIC_NAME>
2-[2-[4-(4-chlorophenyl)piperazin-1-yl]ethyl]-1H-pyrrolo[2,3-b]pyridine

> <PUBCHEM_IUPAC_TRADITIONAL_NAME>
2-[2-[4-(4-chlorophenyl)piperazino]ethyl]-1H-pyrrolo[2,3-b]pyridine

> <PUBCHEM_IUPAC_INCHI>
InChI=1S/C19H21ClN4/c20-16-3-5-18(6-4-16)24-12-10-23(11-13-24)9-7-17-14-15-2-1-8-21-19(15)22-17/h1-6,8,14H,7,9-13H2,(H,21,22)

> <PUBCHEM_IUPAC_INCHIKEY>
QUCXOFSWCJSLHA-UHFFFAOYSA-N

> <PUBCHEM_XLOGP3_AA>
3.9

> <PUBCHEM_EXACT_MASS>
340.1454744

> <PUBCHEM_MOLECULAR_FORMULA>
C19H21ClN4

> <PUBCHEM_MOLECULAR_WEIGHT>
340.8

> <PUBCHEM_OPENEYE_CAN_SMILES>
C1CN(CCN1CCC2=CC3=C(N2)N=CC=C3)C4=CC=C(C=C4)Cl

> <PUBCHEM_OPENEYE_ISO_SMILES>
C1CN(CCN1CCC2=CC3=C(N2)N=CC=C3)C4=CC=C(C=C4)Cl

> <PUBCHEM_CACTVS_TPSA>
35.2

> <PUBCHEM_MONOISOTOPIC_WEIGHT>
340.1454744

> <PUBCHEM_TOTAL_CHARGE>
0

> <PUBCHEM_HEAVY_ATOM_COUNT>
24

> <PUBCHEM_ATOM_DEF_STEREO_COUNT>
0

> <PUBCHEM_ATOM_UDEF_STEREO_COUNT>
0

> <PUBCHEM_BOND_DEF_STEREO_COUNT>
0

> <PUBCHEM_BOND_UDEF_STEREO_COUNT>
0

> <PUBCHEM_ISOTOPIC_ATOM_COUNT>
0

> <PUBCHEM_COMPONENT_COUNT>
1

> <PUBCHEM_CACTVS_TAUTO_COUNT>
-1

> <PUBCHEM_COORDINATE_TYPE>
1
5
255

> <PUBCHEM_BONDANNOTATIONS>
12  15  8
12  16  8
13  14  8
14  17  8
15  19  8
16  20  8
17  18  8
17  21  8
19  22  8
20  22  8
21  23  8
23  24  8
4  13  8
4  18  8
5  18  8
5  24  8

$$$$
