76329346
  -OEChem-09292322342D

 70 72  0     0  0  0  0  0  0999 V2000
   13.6648    0.0000    0.0000 F   0  0  0  0  0  0  0  0  0  0  0  0
   13.1648    2.5981    0.0000 O   0  0  0  0  0  0  0  0  0  0  0  0
    6.1648    0.8660    0.0000 O   0  0  0  0  0  0  0  0  0  0  0  0
    0.5369    2.7320    0.0000 O   0  0  0  0  0  0  0  0  0  0  0  0
    9.1915    8.8056    0.0000 O   0  0  0  0  0  0  0  0  0  0  0  0
    6.5934    9.3056    0.0000 O   0  0  0  0  0  0  0  0  0  0  0  0
    8.3254   10.3056    0.0000 O   0  0  0  0  0  0  0  0  0  0  0  0
    7.4594    7.8056    0.0000 O   0  0  0  0  0  0  0  0  0  0  0  0
   10.1648    4.3301    0.0000 N   0  0  0  0  0  0  0  0  0  0  0  0
   12.1648    4.3301    0.0000 N   0  0  0  0  0  0  0  0  0  0  0  0
    6.1648    2.5981    0.0000 N   0  0  0  0  0  0  0  0  0  0  0  0
    4.0812    0.9273    0.0000 N   0  0  0  0  0  0  0  0  0  0  0  0
   10.6648    5.1962    0.0000 C   0  0  0  0  0  0  0  0  0  0  0  0
   10.6648    3.4641    0.0000 C   0  0  0  0  0  0  0  0  0  0  0  0
   11.6648    5.1962    0.0000 C   0  0  0  0  0  0  0  0  0  0  0  0
   11.6648    3.4641    0.0000 C   0  0  0  0  0  0  0  0  0  0  0  0
    9.1648    4.3301    0.0000 C   0  0  0  0  0  0  0  0  0  0  0  0
   13.1648    4.3301    0.0000 C   0  0  0  0  0  0  0  0  0  0  0  0
   13.6648    3.4641    0.0000 C   0  0  0  0  0  0  0  0  0  0  0  0
    8.6648    3.4641    0.0000 C   0  0  0  0  0  0  0  0  0  0  0  0
   13.6648    5.1962    0.0000 C   0  0  0  0  0  0  0  0  0  0  0  0
   14.6648    3.4641    0.0000 C   0  0  0  0  0  0  0  0  0  0  0  0
   14.6648    5.1962    0.0000 C   0  0  0  0  0  0  0  0  0  0  0  0
    7.6648    3.4641    0.0000 C   0  0  0  0  0  0  0  0  0  0  0  0
   15.1648    4.3301    0.0000 C   0  0  0  0  0  0  0  0  0  0  0  0
    7.1648    2.5981    0.0000 C   0  0  0  0  0  0  0  0  0  0  0  0
   13.6648    1.7320    0.0000 C   0  0  0  0  0  0  0  0  0  0  0  0
    4.6648    1.7320    0.0000 C   0  0  0  0  0  0  0  0  0  0  0  0
    5.6648    1.7320    0.0000 C   0  0  0  0  0  0  0  0  0  0  0  0
    3.1350    2.2320    0.0000 C   0  0  0  0  0  0  0  0  0  0  0  0
    3.1350    1.2320    0.0000 C   0  0  0  0  0  0  0  0  0  0  0  0
   13.1648    0.8660    0.0000 C   0  0  0  0  0  0  0  0  0  0  0  0
    4.0812    2.5368    0.0000 C   0  0  0  0  0  0  0  0  0  0  0  0
    2.2690    2.7320    0.0000 C   0  0  0  0  0  0  0  0  0  0  0  0
    2.2690    0.7321    0.0000 C   0  0  0  0  0  0  0  0  0  0  0  0
    1.4030    2.2320    0.0000 C   0  0  0  0  0  0  0  0  0  0  0  0
    1.4030    1.2320    0.0000 C   0  0  0  0  0  0  0  0  0  0  0  0
    8.3254    9.3056    0.0000 C   0  0  0  0  0  0  0  0  0  0  0  0
    7.4594    8.8056    0.0000 C   0  0  0  0  0  0  0  0  0  0  0  0
   10.7725    5.8067    0.0000 H   0  0  0  0  0  0  0  0  0  0  0  0
   10.0822    5.4082    0.0000 H   0  0  0  0  0  0  0  0  0  0  0  0
   10.0822    3.2520    0.0000 H   0  0  0  0  0  0  0  0  0  0  0  0
   10.7725    2.8535    0.0000 H   0  0  0  0  0  0  0  0  0  0  0  0
   12.2474    5.4082    0.0000 H   0  0  0  0  0  0  0  0  0  0  0  0
   11.5572    5.8067    0.0000 H   0  0  0  0  0  0  0  0  0  0  0  0
   11.5572    2.8535    0.0000 H   0  0  0  0  0  0  0  0  0  0  0  0
   12.2474    3.2520    0.0000 H   0  0  0  0  0  0  0  0  0  0  0  0
    9.2725    4.9407    0.0000 H   0  0  0  0  0  0  0  0  0  0  0  0
    8.5822    4.5422    0.0000 H   0  0  0  0  0  0  0  0  0  0  0  0
    8.9748    2.9272    0.0000 H   0  0  0  0  0  0  0  0  0  0  0  0
   13.3548    5.7331    0.0000 H   0  0  0  0  0  0  0  0  0  0  0  0
   14.9748    2.9272    0.0000 H   0  0  0  0  0  0  0  0  0  0  0  0
    7.3548    4.0010    0.0000 H   0  0  0  0  0  0  0  0  0  0  0  0
   14.9748    5.7331    0.0000 H   0  0  0  0  0  0  0  0  0  0  0  0
   15.7848    4.3301    0.0000 H   0  0  0  0  0  0  0  0  0  0  0  0
    7.0572    1.9875    0.0000 H   0  0  0  0  0  0  0  0  0  0  0  0
    7.7474    2.3860    0.0000 H   0  0  0  0  0  0  0  0  0  0  0  0
   14.1398    1.3335    0.0000 H   0  0  0  0  0  0  0  0  0  0  0  0
   14.1398    2.1306    0.0000 H   0  0  0  0  0  0  0  0  0  0  0  0
    5.8548    3.1350    0.0000 H   0  0  0  0  0  0  0  0  0  0  0  0
    4.2738    3.1261    0.0000 H   0  0  0  0  0  0  0  0  0  0  0  0
    4.2738    0.3380    0.0000 H   0  0  0  0  0  0  0  0  0  0  0  0
   12.6899    1.2646    0.0000 H   0  0  0  0  0  0  0  0  0  0  0  0
   12.6899    0.4675    0.0000 H   0  0  0  0  0  0  0  0  0  0  0  0
    2.2690    3.3520    0.0000 H   0  0  0  0  0  0  0  0  0  0  0  0
    2.2690    0.1121    0.0000 H   0  0  0  0  0  0  0  0  0  0  0  0
    0.8660    0.9221    0.0000 H   0  0  0  0  0  0  0  0  0  0  0  0
    0.0000    2.4220    0.0000 H   0  0  0  0  0  0  0  0  0  0  0  0
    9.7284    9.1156    0.0000 H   0  0  0  0  0  0  0  0  0  0  0  0
    6.0564    8.9956    0.0000 H   0  0  0  0  0  0  0  0  0  0  0  0
  1 32  1  0  0  0  0
  2 19  1  0  0  0  0
  2 27  1  0  0  0  0
  3 29  2  0  0  0  0
  4 36  1  0  0  0  0
  4 68  1  0  0  0  0
  5 38  1  0  0  0  0
  5 69  1  0  0  0  0
  6 39  1  0  0  0  0
  6 70  1  0  0  0  0
  7 38  2  0  0  0  0
  8 39  2  0  0  0  0
  9 13  1  0  0  0  0
  9 14  1  0  0  0  0
  9 17  1  0  0  0  0
 10 15  1  0  0  0  0
 10 16  1  0  0  0  0
 10 18  1  0  0  0  0
 11 26  1  0  0  0  0
 11 29  1  0  0  0  0
 11 60  1  0  0  0  0
 12 28  1  0  0  0  0
 12 31  1  0  0  0  0
 12 62  1  0  0  0  0
 13 15  1  0  0  0  0
 13 40  1  0  0  0  0
 13 41  1  0  0  0  0
 14 16  1  0  0  0  0
 14 42  1  0  0  0  0
 14 43  1  0  0  0  0
 15 44  1  0  0  0  0
 15 45  1  0  0  0  0
 16 46  1  0  0  0  0
 16 47  1  0  0  0  0
 17 20  1  0  0  0  0
 17 48  1  0  0  0  0
 17 49  1  0  0  0  0
 18 19  1  0  0  0  0
 18 21  2  0  0  0  0
 19 22  2  0  0  0  0
 20 24  2  0  0  0  0
 20 50  1  0  0  0  0
 21 23  1  0  0  0  0
 21 51  1  0  0  0  0
 22 25  1  0  0  0  0
 22 52  1  0  0  0  0
 23 25  2  0  0  0  0
 23 54  1  0  0  0  0
 24 26  1  0  0  0  0
 24 53  1  0  0  0  0
 25 55  1  0  0  0  0
 26 56  1  0  0  0  0
 26 57  1  0  0  0  0
 27 32  1  0  0  0  0
 27 58  1  0  0  0  0
 27 59  1  0  0  0  0
 28 29  1  0  0  0  0
 28 33  2  0  0  0  0
 30 31  2  0  0  0  0
 30 33  1  0  0  0  0
 30 34  1  0  0  0  0
 31 35  1  0  0  0  0
 32 63  1  0  0  0  0
 32 64  1  0  0  0  0
 33 61  1  0  0  0  0
 34 36  2  0  0  0  0
 34 65  1  0  0  0  0
 35 37  2  0  0  0  0
 35 66  1  0  0  0  0
 36 37  1  0  0  0  0
 37 67  1  0  0  0  0
 38 39  1  0  0  0  0
M  END
> <PUBCHEM_COMPOUND_CID>
76329346

> <PUBCHEM_COMPOUND_CANONICALIZED>
1

> <PUBCHEM_CACTVS_COMPLEXITY>
715

> <PUBCHEM_CACTVS_HBOND_ACCEPTOR>
10

> <PUBCHEM_CACTVS_HBOND_DONOR>
5

> <PUBCHEM_CACTVS_ROTATABLE_BOND>
10

> <PUBCHEM_CACTVS_SUBSKEYS>
AAADceB7uQAAAAAAAAAAAAAAAAAAAWAAAAA8YIAAAAAAAFgB9AAAHwAQCAAADAzhngYwzvPJlgCoAyXyXAKCiCAnIiAImaH/bNgPZvLGtbuXeSjk1hHZ+Ye42bOeAEABAAACEAAAgAIAAAQgAAAAAAAAAA==

> <PUBCHEM_IUPAC_OPENEYE_NAME>
N-[(E)-4-[4-[2-(2-fluoroethoxy)phenyl]piperazin-1-yl]but-2-enyl]-5-hydroxy-1H-indole-2-carboxamide;oxalic acid

> <PUBCHEM_IUPAC_CAS_NAME>
N-[(E)-4-[4-[2-(2-fluoroethoxy)phenyl]-1-piperazinyl]but-2-enyl]-5-hydroxy-1H-indole-2-carboxamide;oxalic acid

> <PUBCHEM_IUPAC_NAME_MARKUP>
<I>N</I>-[(<I>E</I>)-4-[4-[2-(2-fluoroethoxy)phenyl]piperazin-1-yl]but-2-enyl]-5-hydroxy-1<I>H</I>-indole-2-carboxamide;oxalic acid

> <PUBCHEM_IUPAC_NAME>
N-[(E)-4-[4-[2-(2-fluoroethoxy)phenyl]piperazin-1-yl]but-2-enyl]-5-hydroxy-1H-indole-2-carboxamide;oxalic acid

> <PUBCHEM_IUPAC_SYSTEMATIC_NAME>
ethanedioic acid;N-[(E)-4-[4-[2-(2-fluoranylethoxy)phenyl]piperazin-1-yl]but-2-enyl]-5-oxidanyl-1H-indole-2-carboxamide

> <PUBCHEM_IUPAC_TRADITIONAL_NAME>
N-[(E)-4-[4-[2-(2-fluoroethoxy)phenyl]piperazino]but-2-enyl]-5-hydroxy-1H-indole-2-carboxamide;oxalic acid

> <PUBCHEM_IUPAC_INCHI>
InChI=1S/C25H29FN4O3.C2H2O4/c26-9-16-33-24-6-2-1-5-23(24)30-14-12-29(13-15-30)11-4-3-10-27-25(32)22-18-19-17-20(31)7-8-21(19)28-22;3-1(4)2(5)6/h1-8,17-18,28,31H,9-16H2,(H,27,32);(H,3,4)(H,5,6)/b4-3+;

> <PUBCHEM_IUPAC_INCHIKEY>
SSOMOLFVWCHZST-BJILWQEISA-N

> <PUBCHEM_EXACT_MASS>
542.21767750

> <PUBCHEM_MOLECULAR_FORMULA>
C27H31FN4O7

> <PUBCHEM_MOLECULAR_WEIGHT>
542.6

> <PUBCHEM_OPENEYE_CAN_SMILES>
C1CN(CCN1CC=CCNC(=O)C2=CC3=C(N2)C=CC(=C3)O)C4=CC=CC=C4OCCF.C(=O)(C(=O)O)O

> <PUBCHEM_OPENEYE_ISO_SMILES>
C1CN(CCN1C/C=C/CNC(=O)C2=CC3=C(N2)C=CC(=C3)O)C4=CC=CC=C4OCCF.C(=O)(C(=O)O)O

> <PUBCHEM_CACTVS_TPSA>
155

> <PUBCHEM_MONOISOTOPIC_WEIGHT>
542.21767750

> <PUBCHEM_TOTAL_CHARGE>
0

> <PUBCHEM_HEAVY_ATOM_COUNT>
39

> <PUBCHEM_ATOM_DEF_STEREO_COUNT>
0

> <PUBCHEM_ATOM_UDEF_STEREO_COUNT>
0

> <PUBCHEM_BOND_DEF_STEREO_COUNT>
1

> <PUBCHEM_BOND_UDEF_STEREO_COUNT>
0

> <PUBCHEM_ISOTOPIC_ATOM_COUNT>
0

> <PUBCHEM_COMPONENT_COUNT>
2

> <PUBCHEM_CACTVS_TAUTO_COUNT>
-1

> <PUBCHEM_COORDINATE_TYPE>
1
5
255

> <PUBCHEM_BONDANNOTATIONS>
12  28  8
12  31  8
18  19  8
18  21  8
19  22  8
21  23  8
22  25  8
23  25  8
28  33  8
30  31  8
30  33  8
30  34  8
31  35  8
34  36  8
35  37  8
36  37  8

$$$$
