16049376
  -OEChem-09292322042D

 59 61  0     1  0  0  0  0  0999 V2000
    4.5981    5.6550    0.0000 Cl  0  0  0  0  0  0  0  0  0  0  0  0
    4.5981    7.6550    0.0000 Cl  0  0  0  0  0  0  0  0  0  0  0  0
    5.4641    1.1550    0.0000 S   0  0  0  0  0  0  0  0  0  0  0  0
    9.8744   -4.5403    0.0000 S   0  0  0  0  0  0  0  0  0  0  0  0
    8.9282   -2.8450    0.0000 O   0  0  0  0  0  0  0  0  0  0  0  0
    8.0622   -7.3450    0.0000 O   0  0  0  0  0  0  0  0  0  0  0  0
   11.4580   -5.3450    0.0000 O   0  0  0  0  0  0  0  0  0  0  0  0
    7.1962   -1.8450    0.0000 N   0  0  0  0  0  0  0  0  0  0  0  0
    9.8744   -6.1497    0.0000 N   0  0  0  0  0  0  0  0  0  0  0  0
    3.7320    3.1550    0.0000 N   0  0  0  0  0  0  0  0  0  0  0  0
    8.0622   -3.3450    0.0000 C   0  0  1  0  0  0  0  0  0  0  0  0
    7.1962   -2.8450    0.0000 C   0  0  0  0  0  0  0  0  0  0  0  0
    8.0622   -4.3450    0.0000 C   0  0  0  0  0  0  0  0  0  0  0  0
    6.3301   -1.3450    0.0000 C   0  0  0  0  0  0  0  0  0  0  0  0
    6.3301   -0.3450    0.0000 C   0  0  0  0  0  0  0  0  0  0  0  0
    8.9282   -4.8450    0.0000 C   0  0  0  0  0  0  0  0  0  0  0  0
    8.9282   -5.8450    0.0000 C   0  0  0  0  0  0  0  0  0  0  0  0
    5.4641    0.1550    0.0000 C   0  0  0  0  0  0  0  0  0  0  0  0
    7.1962   -4.8450    0.0000 C   0  0  0  0  0  0  0  0  0  0  0  0
    4.5981    2.6550    0.0000 C   0  0  0  0  0  0  0  0  0  0  0  0
    8.0622   -6.3450    0.0000 C   0  0  0  0  0  0  0  0  0  0  0  0
    4.5981    1.6550    0.0000 C   0  0  0  0  0  0  0  0  0  0  0  0
    3.7320    4.1550    0.0000 C   0  0  0  0  0  0  0  0  0  0  0  0
    7.1962   -5.8450    0.0000 C   0  0  0  0  0  0  0  0  0  0  0  0
    2.8660    4.6550    0.0000 C   0  0  0  0  0  0  0  0  0  0  0  0
   10.4580   -5.3450    0.0000 C   0  0  0  0  0  0  0  0  0  0  0  0
    2.8660    5.6550    0.0000 C   0  0  0  0  0  0  0  0  0  0  0  0
    3.7320    6.1550    0.0000 C   0  0  0  0  0  0  0  0  0  0  0  0
    2.0000    6.1550    0.0000 C   0  0  0  0  0  0  0  0  0  0  0  0
    3.7320    7.1550    0.0000 C   0  0  0  0  0  0  0  0  0  0  0  0
    2.0000    7.1550    0.0000 C   0  0  0  0  0  0  0  0  0  0  0  0
    2.8660    7.6550    0.0000 C   0  0  0  0  0  0  0  0  0  0  0  0
    8.0622   -2.7250    0.0000 H   0  0  0  0  0  0  0  0  0  0  0  0
    6.5856   -2.7373    0.0000 H   0  0  0  0  0  0  0  0  0  0  0  0
    6.9841   -3.4276    0.0000 H   0  0  0  0  0  0  0  0  0  0  0  0
    5.7196   -1.2373    0.0000 H   0  0  0  0  0  0  0  0  0  0  0  0
    6.1181   -1.9276    0.0000 H   0  0  0  0  0  0  0  0  0  0  0  0
    6.9407   -0.4527    0.0000 H   0  0  0  0  0  0  0  0  0  0  0  0
    6.5422    0.2376    0.0000 H   0  0  0  0  0  0  0  0  0  0  0  0
    7.7331   -1.5350    0.0000 H   0  0  0  0  0  0  0  0  0  0  0  0
    4.8535    0.2627    0.0000 H   0  0  0  0  0  0  0  0  0  0  0  0
    5.2520   -0.4276    0.0000 H   0  0  0  0  0  0  0  0  0  0  0  0
    6.6592   -4.5350    0.0000 H   0  0  0  0  0  0  0  0  0  0  0  0
    5.2087    2.5473    0.0000 H   0  0  0  0  0  0  0  0  0  0  0  0
    4.8101    3.2376    0.0000 H   0  0  0  0  0  0  0  0  0  0  0  0
    3.9875    1.7627    0.0000 H   0  0  0  0  0  0  0  0  0  0  0  0
    4.3860    1.0724    0.0000 H   0  0  0  0  0  0  0  0  0  0  0  0
    4.3426    4.0473    0.0000 H   0  0  0  0  0  0  0  0  0  0  0  0
    3.9441    4.7376    0.0000 H   0  0  0  0  0  0  0  0  0  0  0  0
    6.6592   -6.1550    0.0000 H   0  0  0  0  0  0  0  0  0  0  0  0
    2.2554    4.7627    0.0000 H   0  0  0  0  0  0  0  0  0  0  0  0
    2.6540    4.0724    0.0000 H   0  0  0  0  0  0  0  0  0  0  0  0
    3.1951    2.8450    0.0000 H   0  0  0  0  0  0  0  0  0  0  0  0
   10.0670   -6.7391    0.0000 H   0  0  0  0  0  0  0  0  0  0  0  0
    8.9282   -2.2250    0.0000 H   0  0  0  0  0  0  0  0  0  0  0  0
    1.4631    5.8450    0.0000 H   0  0  0  0  0  0  0  0  0  0  0  0
    7.5252   -7.6550    0.0000 H   0  0  0  0  0  0  0  0  0  0  0  0
    1.4631    7.4650    0.0000 H   0  0  0  0  0  0  0  0  0  0  0  0
    2.8660    8.2750    0.0000 H   0  0  0  0  0  0  0  0  0  0  0  0
  1 28  1  0  0  0  0
  2 30  1  0  0  0  0
  3 18  1  0  0  0  0
  3 22  1  0  0  0  0
  4 16  1  0  0  0  0
  4 26  1  0  0  0  0
 11  5  1  6  0  0  0
  5 55  1  0  0  0  0
  6 21  1  0  0  0  0
  6 57  1  0  0  0  0
  7 26  2  0  0  0  0
  8 12  1  0  0  0  0
  8 14  1  0  0  0  0
  8 40  1  0  0  0  0
  9 17  1  0  0  0  0
  9 26  1  0  0  0  0
  9 54  1  0  0  0  0
 10 20  1  0  0  0  0
 10 23  1  0  0  0  0
 10 53  1  0  0  0  0
 11 12  1  0  0  0  0
 11 13  1  0  0  0  0
 11 33  1  0  0  0  0
 12 34  1  0  0  0  0
 12 35  1  0  0  0  0
 13 16  2  0  0  0  0
 13 19  1  0  0  0  0
 14 15  1  0  0  0  0
 14 36  1  0  0  0  0
 14 37  1  0  0  0  0
 15 18  1  0  0  0  0
 15 38  1  0  0  0  0
 15 39  1  0  0  0  0
 16 17  1  0  0  0  0
 17 21  2  0  0  0  0
 18 41  1  0  0  0  0
 18 42  1  0  0  0  0
 19 24  2  0  0  0  0
 19 43  1  0  0  0  0
 20 22  1  0  0  0  0
 20 44  1  0  0  0  0
 20 45  1  0  0  0  0
 21 24  1  0  0  0  0
 22 46  1  0  0  0  0
 22 47  1  0  0  0  0
 23 25  1  0  0  0  0
 23 48  1  0  0  0  0
 23 49  1  0  0  0  0
 24 50  1  0  0  0  0
 25 27  1  0  0  0  0
 25 51  1  0  0  0  0
 25 52  1  0  0  0  0
 27 28  2  0  0  0  0
 27 29  1  0  0  0  0
 28 30  1  0  0  0  0
 29 31  2  0  0  0  0
 29 56  1  0  0  0  0
 30 32  2  0  0  0  0
 31 32  1  0  0  0  0
 31 58  1  0  0  0  0
 32 59  1  0  0  0  0
M  END
> <PUBCHEM_COMPOUND_CID>
16049376

> <PUBCHEM_COMPOUND_CANONICALIZED>
1

> <PUBCHEM_CACTVS_COMPLEXITY>
581

> <PUBCHEM_CACTVS_HBOND_ACCEPTOR>
7

> <PUBCHEM_CACTVS_HBOND_DONOR>
5

> <PUBCHEM_CACTVS_ROTATABLE_BOND>
13

> <PUBCHEM_CACTVS_SUBSKEYS>
AAADceB7MABmAAAAAAAAAAAAAAAAAWAAAAAwYAAAAAAAAFgBQAAAHgYQCAAADB7l2Cawx4LAAgiIAiRCUACCAABhLRAIitQPTogKNiLzk5OEcAhk1BH42Aew4KQOIAAAZAAFEQRAAADIAAoiCAAAAAAAAA==

> <PUBCHEM_IUPAC_OPENEYE_NAME>
7-[(1R)-2-[3-[2-[2-(2,3-dichlorophenyl)ethylamino]ethylsulfanyl]propylamino]-1-hydroxy-ethyl]-4-hydroxy-3H-1,3-benzothiazol-2-one

> <PUBCHEM_IUPAC_CAS_NAME>
7-[(1R)-2-[3-[2-[2-(2,3-dichlorophenyl)ethylamino]ethylthio]propylamino]-1-hydroxyethyl]-4-hydroxy-3H-1,3-benzothiazol-2-one

> <PUBCHEM_IUPAC_NAME_MARKUP>
7-[(1<I>R</I>)-2-[3-[2-[2-(2,3-dichlorophenyl)ethylamino]ethylsulfanyl]propylamino]-1-hydroxyethyl]-4-hydroxy-3<I>H</I>-1,3-benzothiazol-2-one

> <PUBCHEM_IUPAC_NAME>
7-[(1R)-2-[3-[2-[2-(2,3-dichlorophenyl)ethylamino]ethylsulfanyl]propylamino]-1-hydroxyethyl]-4-hydroxy-3H-1,3-benzothiazol-2-one

> <PUBCHEM_IUPAC_SYSTEMATIC_NAME>
7-[(1R)-2-[3-[2-[2-[2,3-bis(chloranyl)phenyl]ethylamino]ethylsulfanyl]propylamino]-1-oxidanyl-ethyl]-4-oxidanyl-3H-1,3-benzothiazol-2-one

> <PUBCHEM_IUPAC_TRADITIONAL_NAME>
7-[(1R)-2-[3-[2-[2-(2,3-dichlorophenyl)ethylamino]ethylthio]propylamino]-1-hydroxy-ethyl]-4-hydroxy-3H-1,3-benzothiazol-2-one

> <PUBCHEM_IUPAC_INCHI>
InChI=1S/C22H27Cl2N3O3S2/c23-16-4-1-3-14(19(16)24)7-9-25-10-12-31-11-2-8-26-13-18(29)15-5-6-17(28)20-21(15)32-22(30)27-20/h1,3-6,18,25-26,28-29H,2,7-13H2,(H,27,30)/t18-/m0/s1

> <PUBCHEM_IUPAC_INCHIKEY>
VSVCCWQJHSJDMV-SFHVURJKSA-N

> <PUBCHEM_XLOGP3_AA>
3.8

> <PUBCHEM_EXACT_MASS>
515.0870895

> <PUBCHEM_MOLECULAR_FORMULA>
C22H27Cl2N3O3S2

> <PUBCHEM_MOLECULAR_WEIGHT>
516.5

> <PUBCHEM_OPENEYE_CAN_SMILES>
C1=CC(=C(C(=C1)Cl)Cl)CCNCCSCCCNCC(C2=C3C(=C(C=C2)O)NC(=O)S3)O

> <PUBCHEM_OPENEYE_ISO_SMILES>
C1=CC(=C(C(=C1)Cl)Cl)CCNCCSCCCNC[C@@H](C2=C3C(=C(C=C2)O)NC(=O)S3)O

> <PUBCHEM_CACTVS_TPSA>
144

> <PUBCHEM_MONOISOTOPIC_WEIGHT>
515.0870895

> <PUBCHEM_TOTAL_CHARGE>
0

> <PUBCHEM_HEAVY_ATOM_COUNT>
32

> <PUBCHEM_ATOM_DEF_STEREO_COUNT>
1

> <PUBCHEM_ATOM_UDEF_STEREO_COUNT>
0

> <PUBCHEM_BOND_DEF_STEREO_COUNT>
0

> <PUBCHEM_BOND_UDEF_STEREO_COUNT>
0

> <PUBCHEM_ISOTOPIC_ATOM_COUNT>
0

> <PUBCHEM_COMPONENT_COUNT>
1

> <PUBCHEM_CACTVS_TAUTO_COUNT>
-1

> <PUBCHEM_COORDINATE_TYPE>
1
5
255

> <PUBCHEM_BONDANNOTATIONS>
13  16  8
13  19  8
16  17  8
17  21  8
19  24  8
21  24  8
27  28  8
27  29  8
28  30  8
29  31  8
30  32  8
31  32  8
4  16  8
4  26  8
11  5  6
9  17  8
9  26  8

$$$$
