44340302
  -OEChem-09292322192D

 57 60  0     1  0  0  0  0  0999 V2000
   11.6691    3.1193    0.0000 Br  0  0  0  0  0  0  0  0  0  0  0  0
    9.9371   -0.8807    0.0000 O   0  0  0  0  0  0  0  0  0  0  0  0
   11.6691   -0.8807    0.0000 O   0  0  0  0  0  0  0  0  0  0  0  0
    5.3903   -1.0831    0.0000 N   0  0  3  0  0  0  0  0  0  0  0  0
    9.0710    0.6193    0.0000 N   0  0  0  0  0  0  0  0  0  0  0  0
    6.4730    0.1193    0.0000 C   0  0  2  0  0  0  0  0  0  0  0  0
    5.5594    0.5260    0.0000 C   0  0  0  0  0  0  0  0  0  0  0  0
    6.3684   -0.8752    0.0000 C   0  0  0  0  0  0  0  0  0  0  0  0
    4.8903   -0.2171    0.0000 C   0  0  0  0  0  0  0  0  0  0  0  0
    7.3390    0.6193    0.0000 C   0  0  0  0  0  0  0  0  0  0  0  0
    4.9836   -1.9967    0.0000 C   0  0  0  0  0  0  0  0  0  0  0  0
    8.2050    0.1193    0.0000 C   0  0  0  0  0  0  0  0  0  0  0  0
    3.9890   -2.1012    0.0000 C   0  0  0  0  0  0  0  0  0  0  0  0
    3.4013   -1.2922    0.0000 C   0  0  0  0  0  0  0  0  0  0  0  0
    3.5823   -3.0148    0.0000 C   0  0  0  0  0  0  0  0  0  0  0  0
    9.9371    0.1193    0.0000 C   0  0  0  0  0  0  0  0  0  0  0  0
   10.8031    0.6193    0.0000 C   0  0  0  0  0  0  0  0  0  0  0  0
    2.4067   -1.3967    0.0000 C   0  0  0  0  0  0  0  0  0  0  0  0
    2.5878   -3.1193    0.0000 C   0  0  0  0  0  0  0  0  0  0  0  0
    2.0000   -2.3103    0.0000 C   0  0  0  0  0  0  0  0  0  0  0  0
   11.6691    0.1193    0.0000 C   0  0  0  0  0  0  0  0  0  0  0  0
   10.8031    1.6193    0.0000 C   0  0  0  0  0  0  0  0  0  0  0  0
   12.5352    0.6193    0.0000 C   0  0  0  0  0  0  0  0  0  0  0  0
   12.5352    1.6193    0.0000 C   0  0  0  0  0  0  0  0  0  0  0  0
   11.6691    2.1193    0.0000 C   0  0  0  0  0  0  0  0  0  0  0  0
   13.4291    0.0846    0.0000 C   0  0  0  0  0  0  0  0  0  0  0  0
   13.4291    2.1540    0.0000 C   0  0  0  0  0  0  0  0  0  0  0  0
   14.3352    0.5985    0.0000 C   0  0  0  0  0  0  0  0  0  0  0  0
   14.3352    1.6401    0.0000 C   0  0  0  0  0  0  0  0  0  0  0  0
   12.5352   -1.3807    0.0000 C   0  0  0  0  0  0  0  0  0  0  0  0
    6.9930   -0.2184    0.0000 H   0  0  0  0  0  0  0  0  0  0  0  0
    5.8694    1.0630    0.0000 H   0  0  0  0  0  0  0  0  0  0  0  0
    5.0578    0.8905    0.0000 H   0  0  0  0  0  0  0  0  0  0  0  0
    6.4333   -1.4918    0.0000 H   0  0  0  0  0  0  0  0  0  0  0  0
    6.9884   -0.8752    0.0000 H   0  0  0  0  0  0  0  0  0  0  0  0
    4.4754    0.2436    0.0000 H   0  0  0  0  0  0  0  0  0  0  0  0
    4.3887   -0.5815    0.0000 H   0  0  0  0  0  0  0  0  0  0  0  0
    7.7375    1.0942    0.0000 H   0  0  0  0  0  0  0  0  0  0  0  0
    6.9405    1.0942    0.0000 H   0  0  0  0  0  0  0  0  0  0  0  0
    4.9403   -2.6152    0.0000 H   0  0  0  0  0  0  0  0  0  0  0  0
    5.5851   -2.1467    0.0000 H   0  0  0  0  0  0  0  0  0  0  0  0
    7.8065   -0.3557    0.0000 H   0  0  0  0  0  0  0  0  0  0  0  0
    8.6036   -0.3557    0.0000 H   0  0  0  0  0  0  0  0  0  0  0  0
    9.0710    1.2393    0.0000 H   0  0  0  0  0  0  0  0  0  0  0  0
    3.6534   -0.7258    0.0000 H   0  0  0  0  0  0  0  0  0  0  0  0
    3.9467   -3.5164    0.0000 H   0  0  0  0  0  0  0  0  0  0  0  0
    2.0423   -0.8951    0.0000 H   0  0  0  0  0  0  0  0  0  0  0  0
    2.3356   -3.6857    0.0000 H   0  0  0  0  0  0  0  0  0  0  0  0
    1.3834   -2.3751    0.0000 H   0  0  0  0  0  0  0  0  0  0  0  0
   10.2662    1.9293    0.0000 H   0  0  0  0  0  0  0  0  0  0  0  0
   13.4219   -0.5353    0.0000 H   0  0  0  0  0  0  0  0  0  0  0  0
   13.4219    2.7739    0.0000 H   0  0  0  0  0  0  0  0  0  0  0  0
   14.8709    0.2864    0.0000 H   0  0  0  0  0  0  0  0  0  0  0  0
   14.8709    1.9522    0.0000 H   0  0  0  0  0  0  0  0  0  0  0  0
   12.2252   -1.9176    0.0000 H   0  0  0  0  0  0  0  0  0  0  0  0
   13.0721   -1.6907    0.0000 H   0  0  0  0  0  0  0  0  0  0  0  0
   12.8452   -0.8438    0.0000 H   0  0  0  0  0  0  0  0  0  0  0  0
  1 25  1  0  0  0  0
  2 16  2  0  0  0  0
  3 21  1  0  0  0  0
  3 30  1  0  0  0  0
  4  8  1  0  0  0  0
  4  9  1  0  0  0  0
  4 11  1  0  0  0  0
  5 12  1  0  0  0  0
  5 16  1  0  0  0  0
  5 44  1  0  0  0  0
  6  7  1  0  0  0  0
  6  8  1  0  0  0  0
  6 10  1  1  0  0  0
  6 31  1  0  0  0  0
  7  9  1  0  0  0  0
  7 32  1  0  0  0  0
  7 33  1  0  0  0  0
  8 34  1  0  0  0  0
  8 35  1  0  0  0  0
  9 36  1  0  0  0  0
  9 37  1  0  0  0  0
 10 12  1  0  0  0  0
 10 38  1  0  0  0  0
 10 39  1  0  0  0  0
 11 13  1  0  0  0  0
 11 40  1  0  0  0  0
 11 41  1  0  0  0  0
 12 42  1  0  0  0  0
 12 43  1  0  0  0  0
 13 14  2  0  0  0  0
 13 15  1  0  0  0  0
 14 18  1  0  0  0  0
 14 45  1  0  0  0  0
 15 19  2  0  0  0  0
 15 46  1  0  0  0  0
 16 17  1  0  0  0  0
 17 21  2  0  0  0  0
 17 22  1  0  0  0  0
 18 20  2  0  0  0  0
 18 47  1  0  0  0  0
 19 20  1  0  0  0  0
 19 48  1  0  0  0  0
 20 49  1  0  0  0  0
 21 23  1  0  0  0  0
 22 25  2  0  0  0  0
 22 50  1  0  0  0  0
 23 24  1  0  0  0  0
 23 26  2  0  0  0  0
 24 25  1  0  0  0  0
 24 27  2  0  0  0  0
 26 28  1  0  0  0  0
 26 51  1  0  0  0  0
 27 29  1  0  0  0  0
 27 52  1  0  0  0  0
 28 29  2  0  0  0  0
 28 53  1  0  0  0  0
 29 54  1  0  0  0  0
 30 55  1  0  0  0  0
 30 56  1  0  0  0  0
 30 57  1  0  0  0  0
M  END
> <PUBCHEM_COMPOUND_CID>
44340302

> <PUBCHEM_COMPOUND_CANONICALIZED>
1

> <PUBCHEM_CACTVS_COMPLEXITY>
553

> <PUBCHEM_CACTVS_HBOND_ACCEPTOR>
3

> <PUBCHEM_CACTVS_HBOND_DONOR>
1

> <PUBCHEM_CACTVS_ROTATABLE_BOND>
7

> <PUBCHEM_CACTVS_SUBSKEYS>
AAADceB7MAAAEAAAAAAAAAAAAAAAAWAAAAAwYMAAAAAAAADBVAAAHgBQAAABrQTBmAYyBsPABACIAiFSEACCCAAkIAQIiIEMDOgMJjaEtRuEMWhm9hGIq5eYyPCOwBADEAAYgACAIAYgADEAAAAAAAAAAA==

> <PUBCHEM_IUPAC_OPENEYE_NAME>
N-[2-[(3R)-1-benzylpyrrolidin-3-yl]ethyl]-4-bromo-1-methoxy-naphthalene-2-carboxamide

> <PUBCHEM_IUPAC_CAS_NAME>
4-bromo-1-methoxy-N-[2-[(3R)-1-(phenylmethyl)-3-pyrrolidinyl]ethyl]-2-naphthalenecarboxamide

> <PUBCHEM_IUPAC_NAME_MARKUP>
<I>N</I>-[2-[(3<I>R</I>)-1-benzylpyrrolidin-3-yl]ethyl]-4-bromo-1-methoxynaphthalene-2-carboxamide

> <PUBCHEM_IUPAC_NAME>
N-[2-[(3R)-1-benzylpyrrolidin-3-yl]ethyl]-4-bromo-1-methoxynaphthalene-2-carboxamide

> <PUBCHEM_IUPAC_SYSTEMATIC_NAME>
4-bromanyl-1-methoxy-N-[2-[(3R)-1-(phenylmethyl)pyrrolidin-3-yl]ethyl]naphthalene-2-carboxamide

> <PUBCHEM_IUPAC_TRADITIONAL_NAME>
N-[2-[(3R)-1-benzylpyrrolidin-3-yl]ethyl]-4-bromo-1-methoxy-2-naphthamide

> <PUBCHEM_IUPAC_INCHI>
InChI=1S/C25H27BrN2O2/c1-30-24-21-10-6-5-9-20(21)23(26)15-22(24)25(29)27-13-11-19-12-14-28(17-19)16-18-7-3-2-4-8-18/h2-10,15,19H,11-14,16-17H2,1H3,(H,27,29)/t19-/m1/s1

> <PUBCHEM_IUPAC_INCHIKEY>
RJZYRNTXYJEPMD-LJQANCHMSA-N

> <PUBCHEM_XLOGP3_AA>
5.4

> <PUBCHEM_EXACT_MASS>
466.12559

> <PUBCHEM_MOLECULAR_FORMULA>
C25H27BrN2O2

> <PUBCHEM_MOLECULAR_WEIGHT>
467.4

> <PUBCHEM_OPENEYE_CAN_SMILES>
COC1=C(C=C(C2=CC=CC=C21)Br)C(=O)NCCC3CCN(C3)CC4=CC=CC=C4

> <PUBCHEM_OPENEYE_ISO_SMILES>
COC1=C(C=C(C2=CC=CC=C21)Br)C(=O)NCC[C@@H]3CCN(C3)CC4=CC=CC=C4

> <PUBCHEM_CACTVS_TPSA>
41.6

> <PUBCHEM_MONOISOTOPIC_WEIGHT>
466.12559

> <PUBCHEM_TOTAL_CHARGE>
0

> <PUBCHEM_HEAVY_ATOM_COUNT>
30

> <PUBCHEM_ATOM_DEF_STEREO_COUNT>
1

> <PUBCHEM_ATOM_UDEF_STEREO_COUNT>
0

> <PUBCHEM_BOND_DEF_STEREO_COUNT>
0

> <PUBCHEM_BOND_UDEF_STEREO_COUNT>
0

> <PUBCHEM_ISOTOPIC_ATOM_COUNT>
0

> <PUBCHEM_COMPONENT_COUNT>
1

> <PUBCHEM_CACTVS_TAUTO_COUNT>
-1

> <PUBCHEM_COORDINATE_TYPE>
1
5
255

> <PUBCHEM_BONDANNOTATIONS>
13  14  8
13  15  8
14  18  8
15  19  8
17  21  8
17  22  8
18  20  8
19  20  8
21  23  8
22  25  8
23  24  8
23  26  8
24  25  8
24  27  8
26  28  8
27  29  8
28  29  8
6  10  5

$$$$
