155549153
  -OEChem-09292322462D

 50 54  0     0  0  0  0  0  0999 V2000
    4.9889   -1.9824    0.0000 S   0  0  0  0  0  0  0  0  0  0  0  0
    5.9394   -1.6718    0.0000 O   0  0  0  0  0  0  0  0  0  0  0  0
    4.0384   -2.2931    0.0000 O   0  0  0  0  0  0  0  0  0  0  0  0
    6.5348    4.8340    0.0000 O   0  0  0  0  0  0  0  0  0  0  0  0
    5.9405    1.8354    0.0000 N   0  0  0  0  0  0  0  0  0  0  0  0
    6.8890    3.1386    0.0000 N   0  0  0  0  0  0  0  0  0  0  0  0
    4.6783   -1.0319    0.0000 N   0  0  0  0  0  0  0  0  0  0  0  0
    4.9917    3.1461    0.0000 N   0  0  0  0  0  0  0  0  0  0  0  0
    6.8862    1.5291    0.0000 C   0  0  0  0  0  0  0  0  0  0  0  0
    4.9889    1.5281    0.0000 C   0  0  0  0  0  0  0  0  0  0  0  0
    5.9422    2.8354    0.0000 C   0  0  0  0  0  0  0  0  0  0  0  0
    7.4712    2.3328    0.0000 C   0  0  0  0  0  0  0  0  0  0  0  0
    4.6783    0.5776    0.0000 C   0  0  0  0  0  0  0  0  0  0  0  0
    4.4026    2.3381    0.0000 C   0  0  0  0  0  0  0  0  0  0  0  0
    3.7320    0.2728    0.0000 C   0  0  0  0  0  0  0  0  0  0  0  0
    3.7320   -0.7272    0.0000 C   0  0  0  0  0  0  0  0  0  0  0  0
    5.2619   -0.2272    0.0000 C   0  0  0  0  0  0  0  0  0  0  0  0
    7.2013    4.0885    0.0000 C   0  0  0  0  0  0  0  0  0  0  0  0
    3.4026    2.3399    0.0000 C   0  0  0  0  0  0  0  0  0  0  0  0
    2.8660    0.7728    0.0000 C   0  0  0  0  0  0  0  0  0  0  0  0
    2.8660   -1.2272    0.0000 C   0  0  0  0  0  0  0  0  0  0  0  0
    5.2996   -2.9329    0.0000 C   0  0  0  0  0  0  0  0  0  0  0  0
    2.0000    0.2728    0.0000 C   0  0  0  0  0  0  0  0  0  0  0  0
    2.0000   -0.7272    0.0000 C   0  0  0  0  0  0  0  0  0  0  0  0
    8.1802    4.2930    0.0000 C   0  0  0  0  0  0  0  0  0  0  0  0
    4.6318   -3.6772    0.0000 C   0  0  0  0  0  0  0  0  0  0  0  0
    6.2781   -3.1392    0.0000 C   0  0  0  0  0  0  0  0  0  0  0  0
    4.9424   -4.6278    0.0000 C   0  0  0  0  0  0  0  0  0  0  0  0
    6.5888   -4.0897    0.0000 C   0  0  0  0  0  0  0  0  0  0  0  0
    5.9209   -4.8340    0.0000 C   0  0  0  0  0  0  0  0  0  0  0  0
    6.6342    0.9626    0.0000 H   0  0  0  0  0  0  0  0  0  0  0  0
    7.4231    1.2189    0.0000 H   0  0  0  0  0  0  0  0  0  0  0  0
    7.9314    1.9173    0.0000 H   0  0  0  0  0  0  0  0  0  0  0  0
    7.9328    2.7467    0.0000 H   0  0  0  0  0  0  0  0  0  0  0  0
    5.8819   -0.2272    0.0000 H   0  0  0  0  0  0  0  0  0  0  0  0
    3.4036    2.9598    0.0000 H   0  0  0  0  0  0  0  0  0  0  0  0
    2.7826    2.3409    0.0000 H   0  0  0  0  0  0  0  0  0  0  0  0
    3.4015    1.7198    0.0000 H   0  0  0  0  0  0  0  0  0  0  0  0
    2.8660    1.3928    0.0000 H   0  0  0  0  0  0  0  0  0  0  0  0
    2.8660   -1.8472    0.0000 H   0  0  0  0  0  0  0  0  0  0  0  0
    1.4631    0.5828    0.0000 H   0  0  0  0  0  0  0  0  0  0  0  0
    1.4631   -1.0372    0.0000 H   0  0  0  0  0  0  0  0  0  0  0  0
    8.3070    3.6862    0.0000 H   0  0  0  0  0  0  0  0  0  0  0  0
    8.7871    4.4199    0.0000 H   0  0  0  0  0  0  0  0  0  0  0  0
    8.0534    4.8999    0.0000 H   0  0  0  0  0  0  0  0  0  0  0  0
    4.0251   -3.5494    0.0000 H   0  0  0  0  0  0  0  0  0  0  0  0
    6.6922   -2.6777    0.0000 H   0  0  0  0  0  0  0  0  0  0  0  0
    4.5284   -5.0892    0.0000 H   0  0  0  0  0  0  0  0  0  0  0  0
    7.1954   -4.2175    0.0000 H   0  0  0  0  0  0  0  0  0  0  0  0
    6.1135   -5.4233    0.0000 H   0  0  0  0  0  0  0  0  0  0  0  0
  1  2  2  0  0  0  0
  1  3  2  0  0  0  0
  1  7  1  0  0  0  0
  1 22  1  0  0  0  0
  4 18  2  0  0  0  0
  5  9  1  0  0  0  0
  5 10  1  0  0  0  0
  5 11  1  0  0  0  0
  6 11  1  0  0  0  0
  6 12  1  0  0  0  0
  6 18  1  0  0  0  0
  7 16  1  0  0  0  0
  7 17  1  0  0  0  0
  8 11  2  0  0  0  0
  8 14  1  0  0  0  0
  9 12  1  0  0  0  0
  9 31  1  0  0  0  0
  9 32  1  0  0  0  0
 10 13  1  0  0  0  0
 10 14  2  0  0  0  0
 12 33  1  0  0  0  0
 12 34  1  0  0  0  0
 13 15  1  0  0  0  0
 13 17  2  0  0  0  0
 14 19  1  0  0  0  0
 15 16  1  0  0  0  0
 15 20  2  0  0  0  0
 16 21  2  0  0  0  0
 17 35  1  0  0  0  0
 18 25  1  0  0  0  0
 19 36  1  0  0  0  0
 19 37  1  0  0  0  0
 19 38  1  0  0  0  0
 20 23  1  0  0  0  0
 20 39  1  0  0  0  0
 21 24  1  0  0  0  0
 21 40  1  0  0  0  0
 22 26  2  0  0  0  0
 22 27  1  0  0  0  0
 23 24  2  0  0  0  0
 23 41  1  0  0  0  0
 24 42  1  0  0  0  0
 25 43  1  0  0  0  0
 25 44  1  0  0  0  0
 25 45  1  0  0  0  0
 26 28  1  0  0  0  0
 26 46  1  0  0  0  0
 27 29  2  0  0  0  0
 27 47  1  0  0  0  0
 28 30  2  0  0  0  0
 28 48  1  0  0  0  0
 29 30  1  0  0  0  0
 29 49  1  0  0  0  0
 30 50  1  0  0  0  0
M  END
> <PUBCHEM_COMPOUND_CID>
155549153

> <PUBCHEM_COMPOUND_CANONICALIZED>
1

> <PUBCHEM_CACTVS_COMPLEXITY>
763

> <PUBCHEM_CACTVS_HBOND_ACCEPTOR>
4

> <PUBCHEM_CACTVS_HBOND_DONOR>
0

> <PUBCHEM_CACTVS_ROTATABLE_BOND>
3

> <PUBCHEM_CACTVS_SUBSKEYS>
AAADceB7sABAAAAAAAAAAAAAAAAAAWLFgAAwYAAAAAAWAFgB/AAAHgQAQAAADAjB3gQ/0fcMEAKoAzV3dHDCgD0xEqAJ2Dg4dJiIaOLA2ZGUIAhohwLIyCcQgMAOgAAAAAACAAAAAAAAAAQAAAAAAAAAAA==

> <PUBCHEM_IUPAC_OPENEYE_NAME>
1-[5-[1-(benzenesulfonyl)indol-3-yl]-6-methyl-2,3-dihydroimidazo[1,2-a]imidazol-1-yl]ethanone

> <PUBCHEM_IUPAC_CAS_NAME>
1-[5-[1-(benzenesulfonyl)-3-indolyl]-6-methyl-2,3-dihydroimidazo[1,2-a]imidazol-1-yl]ethanone

> <PUBCHEM_IUPAC_NAME_MARKUP>
1-[5-[1-(benzenesulfonyl)indol-3-yl]-6-methyl-2,3-dihydroimidazo[1,2-a]imidazol-1-yl]ethanone

> <PUBCHEM_IUPAC_NAME>
1-[5-[1-(benzenesulfonyl)indol-3-yl]-6-methyl-2,3-dihydroimidazo[1,2-a]imidazol-1-yl]ethanone

> <PUBCHEM_IUPAC_SYSTEMATIC_NAME>
1-[6-methyl-5-[1-(phenylsulfonyl)indol-3-yl]-2,3-dihydroimidazo[1,2-a]imidazol-1-yl]ethanone

> <PUBCHEM_IUPAC_TRADITIONAL_NAME>
1-[5-(1-besylindol-3-yl)-6-methyl-2,3-dihydroimidaz[1,2-a]imidazol-1-yl]ethanone

> <PUBCHEM_IUPAC_INCHI>
InChI=1S/C22H20N4O3S/c1-15-21(25-13-12-24(16(2)27)22(25)23-15)19-14-26(20-11-7-6-10-18(19)20)30(28,29)17-8-4-3-5-9-17/h3-11,14H,12-13H2,1-2H3

> <PUBCHEM_IUPAC_INCHIKEY>
IWADYAGRRVKERL-UHFFFAOYSA-N

> <PUBCHEM_XLOGP3_AA>
2.8

> <PUBCHEM_EXACT_MASS>
420.12561169

> <PUBCHEM_MOLECULAR_FORMULA>
C22H20N4O3S

> <PUBCHEM_MOLECULAR_WEIGHT>
420.5

> <PUBCHEM_OPENEYE_CAN_SMILES>
CC1=C(N2CCN(C2=N1)C(=O)C)C3=CN(C4=CC=CC=C43)S(=O)(=O)C5=CC=CC=C5

> <PUBCHEM_OPENEYE_ISO_SMILES>
CC1=C(N2CCN(C2=N1)C(=O)C)C3=CN(C4=CC=CC=C43)S(=O)(=O)C5=CC=CC=C5

> <PUBCHEM_CACTVS_TPSA>
85.6

> <PUBCHEM_MONOISOTOPIC_WEIGHT>
420.12561169

> <PUBCHEM_TOTAL_CHARGE>
0

> <PUBCHEM_HEAVY_ATOM_COUNT>
30

> <PUBCHEM_ATOM_DEF_STEREO_COUNT>
0

> <PUBCHEM_ATOM_UDEF_STEREO_COUNT>
0

> <PUBCHEM_BOND_DEF_STEREO_COUNT>
0

> <PUBCHEM_BOND_UDEF_STEREO_COUNT>
0

> <PUBCHEM_ISOTOPIC_ATOM_COUNT>
0

> <PUBCHEM_COMPONENT_COUNT>
1

> <PUBCHEM_CACTVS_TAUTO_COUNT>
-1

> <PUBCHEM_COORDINATE_TYPE>
1
5
255

> <PUBCHEM_BONDANNOTATIONS>
10  14  8
13  15  8
13  17  8
15  16  8
15  20  8
16  21  8
20  23  8
21  24  8
22  26  8
22  27  8
23  24  8
26  28  8
27  29  8
28  30  8
29  30  8
5  10  8
5  11  8
7  16  8
7  17  8
8  11  8
8  14  8

$$$$
