145976696
  -OEChem-09292322052D

 67 67  0     0  0  0  0  0  0999 V2000
    0.0000    7.1200    0.0000 Cl  0  0  0  0  0  0  0  0  0  0  0  0
    3.0000    7.1200    0.0000 Cl  0  0  0  0  0  0  0  0  0  0  0  0
   10.0010    6.6200    0.0000 O   0  0  0  0  0  0  0  0  0  0  0  0
   12.5991   12.1200    0.0000 O   0  0  0  0  0  0  0  0  0  0  0  0
    8.2690    4.6200    0.0000 O   0  0  0  0  0  0  0  0  0  0  0  0
   10.8671    9.1200    0.0000 N   0  0  0  0  0  0  0  0  0  0  0  0
   10.8671   11.1200    0.0000 N   0  0  0  0  0  0  0  0  0  0  0  0
   10.0010    9.6200    0.0000 C   0  0  0  0  0  0  0  0  0  0  0  0
   11.7331    9.6200    0.0000 C   0  0  0  0  0  0  0  0  0  0  0  0
   10.0010   10.6200    0.0000 C   0  0  0  0  0  0  0  0  0  0  0  0
   11.7331   10.6200    0.0000 C   0  0  0  0  0  0  0  0  0  0  0  0
   10.8671    8.1200    0.0000 C   0  0  0  0  0  0  0  0  0  0  0  0
   10.8671   12.1200    0.0000 C   0  0  0  0  0  0  0  0  0  0  0  0
   10.0010    7.6200    0.0000 C   0  0  0  0  0  0  0  0  0  0  0  0
   11.7331   12.6200    0.0000 C   0  0  0  0  0  0  0  0  0  0  0  0
   10.0010   12.6200    0.0000 C   0  0  0  0  0  0  0  0  0  0  0  0
   11.7331   13.6200    0.0000 C   0  0  0  0  0  0  0  0  0  0  0  0
   10.0010   13.6200    0.0000 C   0  0  0  0  0  0  0  0  0  0  0  0
    9.1350    6.1200    0.0000 C   0  0  0  0  0  0  0  0  0  0  0  0
   10.8671   14.1200    0.0000 C   0  0  0  0  0  0  0  0  0  0  0  0
    9.1350    5.1200    0.0000 C   0  0  0  0  0  0  0  0  0  0  0  0
    8.2690    3.6200    0.0000 C   0  0  0  0  0  0  0  0  0  0  0  0
   13.4651   12.6200    0.0000 C   0  0  0  0  0  0  0  0  0  0  0  0
    7.4030    3.1200    0.0000 C   0  0  0  0  0  0  0  0  0  0  0  0
    9.1350    3.1200    0.0000 C   0  0  0  0  0  0  0  0  0  0  0  0
    8.2690    1.6200    0.0000 C   0  0  0  0  0  0  0  0  0  0  0  0
    7.4030    2.1200    0.0000 C   0  0  0  0  0  0  0  0  0  0  0  0
    9.1350    2.1200    0.0000 C   0  0  0  0  0  0  0  0  0  0  0  0
    6.5369    3.6200    0.0000 C   0  0  0  0  0  0  0  0  0  0  0  0
   10.0010    3.6200    0.0000 C   0  0  0  0  0  0  0  0  0  0  0  0
    8.2690    0.6200    0.0000 C   0  0  0  0  0  0  0  0  0  0  0  0
    9.3905    9.7277    0.0000 H   0  0  0  0  0  0  0  0  0  0  0  0
    9.7890    9.0374    0.0000 H   0  0  0  0  0  0  0  0  0  0  0  0
   11.9451    9.0374    0.0000 H   0  0  0  0  0  0  0  0  0  0  0  0
   12.3437    9.7277    0.0000 H   0  0  0  0  0  0  0  0  0  0  0  0
    9.7890   11.2026    0.0000 H   0  0  0  0  0  0  0  0  0  0  0  0
    9.3905   10.5123    0.0000 H   0  0  0  0  0  0  0  0  0  0  0  0
   12.3437   10.5123    0.0000 H   0  0  0  0  0  0  0  0  0  0  0  0
   11.9451   11.2026    0.0000 H   0  0  0  0  0  0  0  0  0  0  0  0
   11.0791    7.5374    0.0000 H   0  0  0  0  0  0  0  0  0  0  0  0
   11.4776    8.2277    0.0000 H   0  0  0  0  0  0  0  0  0  0  0  0
    9.7890    8.2026    0.0000 H   0  0  0  0  0  0  0  0  0  0  0  0
    9.3905    7.5123    0.0000 H   0  0  0  0  0  0  0  0  0  0  0  0
    9.4641   12.3100    0.0000 H   0  0  0  0  0  0  0  0  0  0  0  0
   12.2700   13.9300    0.0000 H   0  0  0  0  0  0  0  0  0  0  0  0
    9.4641   13.9300    0.0000 H   0  0  0  0  0  0  0  0  0  0  0  0
    8.9230    6.7026    0.0000 H   0  0  0  0  0  0  0  0  0  0  0  0
    8.5244    6.0123    0.0000 H   0  0  0  0  0  0  0  0  0  0  0  0
   10.8671   14.7400    0.0000 H   0  0  0  0  0  0  0  0  0  0  0  0
    9.3471    4.5374    0.0000 H   0  0  0  0  0  0  0  0  0  0  0  0
    9.7456    5.2277    0.0000 H   0  0  0  0  0  0  0  0  0  0  0  0
   13.7751   12.0831    0.0000 H   0  0  0  0  0  0  0  0  0  0  0  0
   14.0021   12.9300    0.0000 H   0  0  0  0  0  0  0  0  0  0  0  0
   13.1551   13.1569    0.0000 H   0  0  0  0  0  0  0  0  0  0  0  0
    6.8660    1.8100    0.0000 H   0  0  0  0  0  0  0  0  0  0  0  0
    9.6720    1.8100    0.0000 H   0  0  0  0  0  0  0  0  0  0  0  0
    6.8469    4.1569    0.0000 H   0  0  0  0  0  0  0  0  0  0  0  0
    6.0000    3.9300    0.0000 H   0  0  0  0  0  0  0  0  0  0  0  0
    6.2269    3.0831    0.0000 H   0  0  0  0  0  0  0  0  0  0  0  0
   10.3110    3.0831    0.0000 H   0  0  0  0  0  0  0  0  0  0  0  0
   10.5380    3.9300    0.0000 H   0  0  0  0  0  0  0  0  0  0  0  0
    9.6910    4.1569    0.0000 H   0  0  0  0  0  0  0  0  0  0  0  0
    7.6490    0.6200    0.0000 H   0  0  0  0  0  0  0  0  0  0  0  0
    8.2690    0.0000    0.0000 H   0  0  0  0  0  0  0  0  0  0  0  0
    8.8890    0.6200    0.0000 H   0  0  0  0  0  0  0  0  0  0  0  0
    1.0000    7.1200    0.0000 H   0  0  0  0  0  0  0  0  0  0  0  0
    4.0000    7.1200    0.0000 H   0  0  0  0  0  0  0  0  0  0  0  0
  1 66  1  0  0  0  0
  2 67  1  0  0  0  0
  3 14  1  0  0  0  0
  3 19  1  0  0  0  0
  4 15  1  0  0  0  0
  4 23  1  0  0  0  0
  5 21  1  0  0  0  0
  5 22  1  0  0  0  0
  6  8  1  0  0  0  0
  6  9  1  0  0  0  0
  6 12  1  0  0  0  0
  7 10  1  0  0  0  0
  7 11  1  0  0  0  0
  7 13  1  0  0  0  0
  8 10  1  0  0  0  0
  8 32  1  0  0  0  0
  8 33  1  0  0  0  0
  9 11  1  0  0  0  0
  9 34  1  0  0  0  0
  9 35  1  0  0  0  0
 10 36  1  0  0  0  0
 10 37  1  0  0  0  0
 11 38  1  0  0  0  0
 11 39  1  0  0  0  0
 12 14  1  0  0  0  0
 12 40  1  0  0  0  0
 12 41  1  0  0  0  0
 13 15  1  0  0  0  0
 13 16  2  0  0  0  0
 14 42  1  0  0  0  0
 14 43  1  0  0  0  0
 15 17  2  0  0  0  0
 16 18  1  0  0  0  0
 16 44  1  0  0  0  0
 17 20  1  0  0  0  0
 17 45  1  0  0  0  0
 18 20  2  0  0  0  0
 18 46  1  0  0  0  0
 19 21  1  0  0  0  0
 19 47  1  0  0  0  0
 19 48  1  0  0  0  0
 20 49  1  0  0  0  0
 21 50  1  0  0  0  0
 21 51  1  0  0  0  0
 22 24  2  0  0  0  0
 22 25  1  0  0  0  0
 23 52  1  0  0  0  0
 23 53  1  0  0  0  0
 23 54  1  0  0  0  0
 24 27  1  0  0  0  0
 24 29  1  0  0  0  0
 25 28  2  0  0  0  0
 25 30  1  0  0  0  0
 26 27  2  0  0  0  0
 26 28  1  0  0  0  0
 26 31  1  0  0  0  0
 27 55  1  0  0  0  0
 28 56  1  0  0  0  0
 29 57  1  0  0  0  0
 29 58  1  0  0  0  0
 29 59  1  0  0  0  0
 30 60  1  0  0  0  0
 30 61  1  0  0  0  0
 30 62  1  0  0  0  0
 31 63  1  0  0  0  0
 31 64  1  0  0  0  0
 31 65  1  0  0  0  0
M  END
> <PUBCHEM_COMPOUND_CID>
145976696

> <PUBCHEM_COMPOUND_CANONICALIZED>
1

> <PUBCHEM_CACTVS_COMPLEXITY>
443

> <PUBCHEM_CACTVS_HBOND_ACCEPTOR>
5

> <PUBCHEM_CACTVS_HBOND_DONOR>
2

> <PUBCHEM_CACTVS_ROTATABLE_BOND>
9

> <PUBCHEM_CACTVS_SUBSKEYS>
AAADcfB7MAAGAAAAAAAAAAAAAAAAAAAAAAA8YIAAAAAAAAABQAAAHgAAAAAADAzhmAYyxoMABACAAiRCQACCCAAhIgAIiAAPbIgPZiLEsZuXOCjkwBHa6AeQwGAOIAACAAAIEABAAAQAABAgAAAAAAAAAA==

> <PUBCHEM_IUPAC_OPENEYE_NAME>
1-(2-methoxyphenyl)-4-[2-[2-(2,4,6-trimethylphenoxy)ethoxy]ethyl]piperazine;dihydrochloride

> <PUBCHEM_IUPAC_CAS_NAME>
1-(2-methoxyphenyl)-4-[2-[2-(2,4,6-trimethylphenoxy)ethoxy]ethyl]piperazine;dihydrochloride

> <PUBCHEM_IUPAC_NAME_MARKUP>
1-(2-methoxyphenyl)-4-[2-[2-(2,4,6-trimethylphenoxy)ethoxy]ethyl]piperazine;dihydrochloride

> <PUBCHEM_IUPAC_NAME>
1-(2-methoxyphenyl)-4-[2-[2-(2,4,6-trimethylphenoxy)ethoxy]ethyl]piperazine;dihydrochloride

> <PUBCHEM_IUPAC_SYSTEMATIC_NAME>
1-(2-methoxyphenyl)-4-[2-[2-(2,4,6-trimethylphenoxy)ethoxy]ethyl]piperazine;dihydrochloride

> <PUBCHEM_IUPAC_TRADITIONAL_NAME>
1-(2-methoxyphenyl)-4-[2-[2-(2,4,6-trimethylphenoxy)ethoxy]ethyl]piperazine;dihydrochloride

> <PUBCHEM_IUPAC_INCHI>
InChI=1S/C24H34N2O3.2ClH/c1-19-17-20(2)24(21(3)18-19)29-16-15-28-14-13-25-9-11-26(12-10-25)22-7-5-6-8-23(22)27-4;;/h5-8,17-18H,9-16H2,1-4H3;2*1H

> <PUBCHEM_IUPAC_INCHIKEY>
HIGGDBUSQHFDFQ-UHFFFAOYSA-N

> <PUBCHEM_EXACT_MASS>
470.2102984

> <PUBCHEM_MOLECULAR_FORMULA>
C24H36Cl2N2O3

> <PUBCHEM_MOLECULAR_WEIGHT>
471.5

> <PUBCHEM_OPENEYE_CAN_SMILES>
CC1=CC(=C(C(=C1)C)OCCOCCN2CCN(CC2)C3=CC=CC=C3OC)C.Cl.Cl

> <PUBCHEM_OPENEYE_ISO_SMILES>
CC1=CC(=C(C(=C1)C)OCCOCCN2CCN(CC2)C3=CC=CC=C3OC)C.Cl.Cl

> <PUBCHEM_CACTVS_TPSA>
34.2

> <PUBCHEM_MONOISOTOPIC_WEIGHT>
470.2102984

> <PUBCHEM_TOTAL_CHARGE>
0

> <PUBCHEM_HEAVY_ATOM_COUNT>
31

> <PUBCHEM_ATOM_DEF_STEREO_COUNT>
0

> <PUBCHEM_ATOM_UDEF_STEREO_COUNT>
0

> <PUBCHEM_BOND_DEF_STEREO_COUNT>
0

> <PUBCHEM_BOND_UDEF_STEREO_COUNT>
0

> <PUBCHEM_ISOTOPIC_ATOM_COUNT>
0

> <PUBCHEM_COMPONENT_COUNT>
3

> <PUBCHEM_CACTVS_TAUTO_COUNT>
-1

> <PUBCHEM_COORDINATE_TYPE>
1
5
255

> <PUBCHEM_BONDANNOTATIONS>
13  15  8
13  16  8
15  17  8
16  18  8
17  20  8
18  20  8
22  24  8
22  25  8
24  27  8
25  28  8
26  27  8
26  28  8

$$$$
