46881466
  -OEChem-09292322022D

 43 45  0     1  0  0  0  0  0999 V2000
    2.0000   -4.1112    0.0000 F   0  0  0  0  0  0  0  0  0  0  0  0
    3.3660   -4.4773    0.0000 F   0  0  0  0  0  0  0  0  0  0  0  0
    2.3660   -2.7452    0.0000 F   0  0  0  0  0  0  0  0  0  0  0  0
    2.8380   -0.3325    0.0000 O   0  0  0  0  0  0  0  0  0  0  0  0
    4.0981    0.9276    0.0000 N   0  0  0  0  0  0  0  0  0  0  0  0
    3.3292    3.4592    0.0000 N   0  0  0  0  0  0  0  0  0  0  0  0
    4.5981   -0.6112    0.0000 N   0  0  0  0  0  0  0  0  0  0  0  0
    3.9170    2.6502    0.0000 C   0  0  3  0  0  0  0  0  0  0  0  0
    4.9116    2.7547    0.0000 C   0  0  0  0  0  0  0  0  0  0  0  0
    3.5103    1.7366    0.0000 C   0  0  0  0  0  0  0  0  0  0  0  0
    5.3183    3.6682    0.0000 C   0  0  0  0  0  0  0  0  0  0  0  0
    4.7305    4.4773    0.0000 C   0  0  0  0  0  0  0  0  0  0  0  0
    3.7360    4.3727    0.0000 C   0  0  0  0  0  0  0  0  0  0  0  0
    5.0981    0.9276    0.0000 C   0  0  0  0  0  0  0  0  0  0  0  0
    5.4071   -0.0234    0.0000 C   0  0  0  0  0  0  0  0  0  0  0  0
    3.7891   -0.0234    0.0000 C   0  0  0  0  0  0  0  0  0  0  0  0
    4.5981   -1.6112    0.0000 C   0  0  0  0  0  0  0  0  0  0  0  0
    3.7320   -2.1112    0.0000 C   0  0  0  0  0  0  0  0  0  0  0  0
    5.4641   -2.1112    0.0000 C   0  0  0  0  0  0  0  0  0  0  0  0
    3.7320   -3.1112    0.0000 C   0  0  0  0  0  0  0  0  0  0  0  0
    5.4641   -3.1112    0.0000 C   0  0  0  0  0  0  0  0  0  0  0  0
    4.5981   -3.6112    0.0000 C   0  0  0  0  0  0  0  0  0  0  0  0
    2.8660   -3.6112    0.0000 C   0  0  0  0  0  0  0  0  0  0  0  0
    3.3004    2.5854    0.0000 H   0  0  0  0  0  0  0  0  0  0  0  0
    4.8683    2.1362    0.0000 H   0  0  0  0  0  0  0  0  0  0  0  0
    5.5131    2.6047    0.0000 H   0  0  0  0  0  0  0  0  0  0  0  0
    2.9963    2.0833    0.0000 H   0  0  0  0  0  0  0  0  0  0  0  0
    3.0796    1.2906    0.0000 H   0  0  0  0  0  0  0  0  0  0  0  0
    5.8323    3.3215    0.0000 H   0  0  0  0  0  0  0  0  0  0  0  0
    5.7490    4.1142    0.0000 H   0  0  0  0  0  0  0  0  0  0  0  0
    5.2878    4.7491    0.0000 H   0  0  0  0  0  0  0  0  0  0  0  0
    4.5596    5.0732    0.0000 H   0  0  0  0  0  0  0  0  0  0  0  0
    2.7126    3.3944    0.0000 H   0  0  0  0  0  0  0  0  0  0  0  0
    3.7792    4.9912    0.0000 H   0  0  0  0  0  0  0  0  0  0  0  0
    3.1344    4.5227    0.0000 H   0  0  0  0  0  0  0  0  0  0  0  0
    5.7045    1.0565    0.0000 H   0  0  0  0  0  0  0  0  0  0  0  0
    5.0333    1.5442    0.0000 H   0  0  0  0  0  0  0  0  0  0  0  0
    5.7171   -0.5604    0.0000 H   0  0  0  0  0  0  0  0  0  0  0  0
    5.9735    0.2287    0.0000 H   0  0  0  0  0  0  0  0  0  0  0  0
    3.1951   -1.8012    0.0000 H   0  0  0  0  0  0  0  0  0  0  0  0
    6.0010   -1.8012    0.0000 H   0  0  0  0  0  0  0  0  0  0  0  0
    6.0010   -3.4212    0.0000 H   0  0  0  0  0  0  0  0  0  0  0  0
    4.5981   -4.2312    0.0000 H   0  0  0  0  0  0  0  0  0  0  0  0
  1 23  1  0  0  0  0
  2 23  1  0  0  0  0
  3 23  1  0  0  0  0
  4 16  2  0  0  0  0
  5 10  1  0  0  0  0
  5 14  1  0  0  0  0
  5 16  1  0  0  0  0
  6  8  1  0  0  0  0
  6 13  1  0  0  0  0
  6 33  1  0  0  0  0
  7 15  1  0  0  0  0
  7 16  1  0  0  0  0
  7 17  1  0  0  0  0
  8  9  1  0  0  0  0
  8 10  1  0  0  0  0
  8 24  1  0  0  0  0
  9 11  1  0  0  0  0
  9 25  1  0  0  0  0
  9 26  1  0  0  0  0
 10 27  1  0  0  0  0
 10 28  1  0  0  0  0
 11 12  1  0  0  0  0
 11 29  1  0  0  0  0
 11 30  1  0  0  0  0
 12 13  1  0  0  0  0
 12 31  1  0  0  0  0
 12 32  1  0  0  0  0
 13 34  1  0  0  0  0
 13 35  1  0  0  0  0
 14 15  1  0  0  0  0
 14 36  1  0  0  0  0
 14 37  1  0  0  0  0
 15 38  1  0  0  0  0
 15 39  1  0  0  0  0
 17 18  1  0  0  0  0
 17 19  2  0  0  0  0
 18 20  2  0  0  0  0
 18 40  1  0  0  0  0
 19 21  1  0  0  0  0
 19 41  1  0  0  0  0
 20 22  1  0  0  0  0
 20 23  1  0  0  0  0
 21 22  2  0  0  0  0
 21 42  1  0  0  0  0
 22 43  1  0  0  0  0
M  END
> <PUBCHEM_COMPOUND_CID>
46881466

> <PUBCHEM_COMPOUND_CANONICALIZED>
1

> <PUBCHEM_CACTVS_COMPLEXITY>
429

> <PUBCHEM_CACTVS_HBOND_ACCEPTOR>
5

> <PUBCHEM_CACTVS_HBOND_DONOR>
1

> <PUBCHEM_CACTVS_ROTATABLE_BOND>
3

> <PUBCHEM_CACTVS_SUBSKEYS>
AAADceB7IYAAAAAAAAAAAAAAAAAAAWAAAAA8QAAAAAAAAAABAAAAHwAQAAAADCjBGBQxwIPAAACIAiRCUACCAAAhAgAIiIAIZIiIYCLAkZGUIAholgLIyCcQgAAOAAAAQAAAAAAAAACAAAAAAAAAAAAAAA==

> <PUBCHEM_IUPAC_OPENEYE_NAME>
1-(2-piperidylmethyl)-3-[3-(trifluoromethyl)phenyl]imidazolidin-2-one

> <PUBCHEM_IUPAC_CAS_NAME>
1-(2-piperidinylmethyl)-3-[3-(trifluoromethyl)phenyl]-2-imidazolidinone

> <PUBCHEM_IUPAC_NAME_MARKUP>
1-(piperidin-2-ylmethyl)-3-[3-(trifluoromethyl)phenyl]imidazolidin-2-one

> <PUBCHEM_IUPAC_NAME>
1-(piperidin-2-ylmethyl)-3-[3-(trifluoromethyl)phenyl]imidazolidin-2-one

> <PUBCHEM_IUPAC_SYSTEMATIC_NAME>
1-(piperidin-2-ylmethyl)-3-[3-(trifluoromethyl)phenyl]imidazolidin-2-one

> <PUBCHEM_IUPAC_TRADITIONAL_NAME>
1-(2-piperidylmethyl)-3-[3-(trifluoromethyl)phenyl]-2-imidazolidinone

> <PUBCHEM_IUPAC_INCHI>
InChI=1S/C16H20F3N3O/c17-16(18,19)12-4-3-6-14(10-12)22-9-8-21(15(22)23)11-13-5-1-2-7-20-13/h3-4,6,10,13,20H,1-2,5,7-9,11H2

> <PUBCHEM_IUPAC_INCHIKEY>
AREYZFZATPKFNP-UHFFFAOYSA-N

> <PUBCHEM_XLOGP3_AA>
2.4

> <PUBCHEM_EXACT_MASS>
327.15584676

> <PUBCHEM_MOLECULAR_FORMULA>
C16H20F3N3O

> <PUBCHEM_MOLECULAR_WEIGHT>
327.34

> <PUBCHEM_OPENEYE_CAN_SMILES>
C1CCNC(C1)CN2CCN(C2=O)C3=CC=CC(=C3)C(F)(F)F

> <PUBCHEM_OPENEYE_ISO_SMILES>
C1CCNC(C1)CN2CCN(C2=O)C3=CC=CC(=C3)C(F)(F)F

> <PUBCHEM_CACTVS_TPSA>
35.6

> <PUBCHEM_MONOISOTOPIC_WEIGHT>
327.15584676

> <PUBCHEM_TOTAL_CHARGE>
0

> <PUBCHEM_HEAVY_ATOM_COUNT>
23

> <PUBCHEM_ATOM_DEF_STEREO_COUNT>
0

> <PUBCHEM_ATOM_UDEF_STEREO_COUNT>
1

> <PUBCHEM_BOND_DEF_STEREO_COUNT>
0

> <PUBCHEM_BOND_UDEF_STEREO_COUNT>
0

> <PUBCHEM_ISOTOPIC_ATOM_COUNT>
0

> <PUBCHEM_COMPONENT_COUNT>
1

> <PUBCHEM_CACTVS_TAUTO_COUNT>
-1

> <PUBCHEM_COORDINATE_TYPE>
1
5
255

> <PUBCHEM_BONDANNOTATIONS>
17  18  8
17  19  8
18  20  8
19  21  8
20  22  8
21  22  8
8  10  3

$$$$
