12066264
  -OEChem-09292322112D

 64 69  0     1  0  0  0  0  0999 V2000
    8.5104   -5.5218    0.0000 F   0  0  0  0  0  0  0  0  0  0  0  0
    2.0000   -3.1522    0.0000 F   0  0  0  0  0  0  0  0  0  0  0  0
    6.2812   -1.5179    0.0000 O   0  0  0  0  0  0  0  0  0  0  0  0
    5.4044    1.9871    0.0000 N   0  0  0  0  0  0  0  0  0  0  0  0
    4.2751    1.5045    0.0000 C   0  0  3  0  0  0  0  0  0  0  0  0
    4.0163    0.5386    0.0000 C   0  0  3  0  0  0  0  0  0  0  0  0
    2.8092    1.7633    0.0000 C   0  0  0  0  0  0  0  0  0  0  0  0
    2.5504    0.7974    0.0000 C   0  0  0  0  0  0  0  0  0  0  0  0
    5.8804    0.2184    0.0000 C   0  0  0  0  0  0  0  0  0  0  0  0
    4.6409   -0.8216    0.0000 C   0  0  0  0  0  0  0  0  0  0  0  0
    5.6385   -0.7519    0.0000 C   0  0  0  0  0  0  0  0  0  0  0  0
    6.2704    2.4871    0.0000 C   0  0  0  0  0  0  0  0  0  0  0  0
    6.2704    3.4871    0.0000 C   0  0  0  0  0  0  0  0  0  0  0  0
    5.9392   -2.4576    0.0000 C   0  0  0  0  0  0  0  0  0  0  0  0
    7.1364    3.9871    0.0000 C   0  0  0  0  0  0  0  0  0  0  0  0
    5.4044    3.9871    0.0000 C   0  0  0  0  0  0  0  0  0  0  0  0
    6.5820   -3.2237    0.0000 C   0  0  0  0  0  0  0  0  0  0  0  0
    4.9544   -2.6313    0.0000 C   0  0  0  0  0  0  0  0  0  0  0  0
    7.1364    4.9871    0.0000 C   0  0  0  0  0  0  0  0  0  0  0  0
    5.4044    4.9871    0.0000 C   0  0  0  0  0  0  0  0  0  0  0  0
    8.0303    3.4525    0.0000 C   0  0  0  0  0  0  0  0  0  0  0  0
    6.2704    5.4871    0.0000 C   0  0  0  0  0  0  0  0  0  0  0  0
    7.5668   -3.0500    0.0000 C   0  0  0  0  0  0  0  0  0  0  0  0
    4.3116   -1.8652    0.0000 C   0  0  0  0  0  0  0  0  0  0  0  0
    6.2400   -4.1634    0.0000 C   0  0  0  0  0  0  0  0  0  0  0  0
    4.6124   -3.5710    0.0000 C   0  0  0  0  0  0  0  0  0  0  0  0
    8.0303    5.5218    0.0000 C   0  0  0  0  0  0  0  0  0  0  0  0
    8.9364    3.9663    0.0000 C   0  0  0  0  0  0  0  0  0  0  0  0
    8.9364    5.0080    0.0000 C   0  0  0  0  0  0  0  0  0  0  0  0
    8.2096   -3.8161    0.0000 C   0  0  0  0  0  0  0  0  0  0  0  0
    3.3268   -2.0389    0.0000 C   0  0  0  0  0  0  0  0  0  0  0  0
    6.8828   -4.9294    0.0000 C   0  0  0  0  0  0  0  0  0  0  0  0
    3.6276   -3.7446    0.0000 C   0  0  0  0  0  0  0  0  0  0  0  0
    7.8676   -4.7558    0.0000 C   0  0  0  0  0  0  0  0  0  0  0  0
    2.9848   -2.9786    0.0000 C   0  0  0  0  0  0  0  0  0  0  0  0
    4.0194    0.9397    0.0000 H   0  0  0  0  0  0  0  0  0  0  0  0
    3.6374    0.0478    0.0000 H   0  0  0  0  0  0  0  0  0  0  0  0
    2.9346    2.3705    0.0000 H   0  0  0  0  0  0  0  0  0  0  0  0
    2.2059    1.9063    0.0000 H   0  0  0  0  0  0  0  0  0  0  0  0
    1.9471    0.9404    0.0000 H   0  0  0  0  0  0  0  0  0  0  0  0
    2.4249    0.1902    0.0000 H   0  0  0  0  0  0  0  0  0  0  0  0
    6.4543   -0.0162    0.0000 H   0  0  0  0  0  0  0  0  0  0  0  0
    6.1948    0.7528    0.0000 H   0  0  0  0  0  0  0  0  0  0  0  0
    4.0505   -1.0109    0.0000 H   0  0  0  0  0  0  0  0  0  0  0  0
    4.7580   -1.4305    0.0000 H   0  0  0  0  0  0  0  0  0  0  0  0
    6.2426   -0.6124    0.0000 H   0  0  0  0  0  0  0  0  0  0  0  0
    6.4824    1.9045    0.0000 H   0  0  0  0  0  0  0  0  0  0  0  0
    6.8810    2.5948    0.0000 H   0  0  0  0  0  0  0  0  0  0  0  0
    5.5407   -1.9827    0.0000 H   0  0  0  0  0  0  0  0  0  0  0  0
    4.8674    3.6771    0.0000 H   0  0  0  0  0  0  0  0  0  0  0  0
    4.8674    5.2971    0.0000 H   0  0  0  0  0  0  0  0  0  0  0  0
    8.0232    2.8325    0.0000 H   0  0  0  0  0  0  0  0  0  0  0  0
    6.2704    6.1071    0.0000 H   0  0  0  0  0  0  0  0  0  0  0  0
    7.7789   -2.4674    0.0000 H   0  0  0  0  0  0  0  0  0  0  0  0
    4.5237   -1.2826    0.0000 H   0  0  0  0  0  0  0  0  0  0  0  0
    5.6294   -4.2710    0.0000 H   0  0  0  0  0  0  0  0  0  0  0  0
    5.0109   -4.0459    0.0000 H   0  0  0  0  0  0  0  0  0  0  0  0
    8.0232    6.1418    0.0000 H   0  0  0  0  0  0  0  0  0  0  0  0
    9.4721    3.6543    0.0000 H   0  0  0  0  0  0  0  0  0  0  0  0
    9.4721    5.3200    0.0000 H   0  0  0  0  0  0  0  0  0  0  0  0
    8.8202   -3.7084    0.0000 H   0  0  0  0  0  0  0  0  0  0  0  0
    2.9283   -1.5639    0.0000 H   0  0  0  0  0  0  0  0  0  0  0  0
    6.6707   -5.5120    0.0000 H   0  0  0  0  0  0  0  0  0  0  0  0
    3.4155   -4.3272    0.0000 H   0  0  0  0  0  0  0  0  0  0  0  0
  1 34  1  0  0  0  0
  2 35  1  0  0  0  0
  3 11  1  0  0  0  0
  3 14  1  0  0  0  0
  4  5  1  0  0  0  0
  4  6  1  0  0  0  0
  4 12  1  0  0  0  0
  5  7  1  0  0  0  0
  5  9  1  0  0  0  0
  5 36  1  0  0  0  0
  6  8  1  0  0  0  0
  6 10  1  0  0  0  0
  6 37  1  0  0  0  0
  7  8  1  0  0  0  0
  7 38  1  0  0  0  0
  7 39  1  0  0  0  0
  8 40  1  0  0  0  0
  8 41  1  0  0  0  0
  9 11  1  0  0  0  0
  9 42  1  0  0  0  0
  9 43  1  0  0  0  0
 10 11  1  0  0  0  0
 10 44  1  0  0  0  0
 10 45  1  0  0  0  0
 11 46  1  0  0  0  0
 12 13  1  0  0  0  0
 12 47  1  0  0  0  0
 12 48  1  0  0  0  0
 13 15  1  0  0  0  0
 13 16  2  0  0  0  0
 14 17  1  0  0  0  0
 14 18  1  0  0  0  0
 14 49  1  0  0  0  0
 15 19  1  0  0  0  0
 15 21  2  0  0  0  0
 16 20  1  0  0  0  0
 16 50  1  0  0  0  0
 17 23  2  0  0  0  0
 17 25  1  0  0  0  0
 18 24  2  0  0  0  0
 18 26  1  0  0  0  0
 19 22  1  0  0  0  0
 19 27  2  0  0  0  0
 20 22  2  0  0  0  0
 20 51  1  0  0  0  0
 21 28  1  0  0  0  0
 21 52  1  0  0  0  0
 22 53  1  0  0  0  0
 23 30  1  0  0  0  0
 23 54  1  0  0  0  0
 24 31  1  0  0  0  0
 24 55  1  0  0  0  0
 25 32  2  0  0  0  0
 25 56  1  0  0  0  0
 26 33  2  0  0  0  0
 26 57  1  0  0  0  0
 27 29  1  0  0  0  0
 27 58  1  0  0  0  0
 28 29  2  0  0  0  0
 28 59  1  0  0  0  0
 29 60  1  0  0  0  0
 30 34  2  0  0  0  0
 30 61  1  0  0  0  0
 31 35  2  0  0  0  0
 31 62  1  0  0  0  0
 32 34  1  0  0  0  0
 32 63  1  0  0  0  0
 33 35  1  0  0  0  0
 33 64  1  0  0  0  0
M  END
> <PUBCHEM_COMPOUND_CID>
12066264

> <PUBCHEM_COMPOUND_CANONICALIZED>
1

> <PUBCHEM_CACTVS_COMPLEXITY>
637

> <PUBCHEM_CACTVS_HBOND_ACCEPTOR>
4

> <PUBCHEM_CACTVS_HBOND_DONOR>
0

> <PUBCHEM_CACTVS_ROTATABLE_BOND>
6

> <PUBCHEM_CACTVS_SUBSKEYS>
AAADceB6IYAAAAAAAAAAAAAAAAAAAWAAAAA8YMGCBgAAAADBVAAAHwAAAAAADDzhmA4wAMMABACAAiBCAACCAAAgAAAIiAAIDIgIJiKAsRmGMAhmwAGIqAeQwOAOgAACAAAQAAAAAAQAACAAAAAAAAAAAA==

> <PUBCHEM_IUPAC_OPENEYE_NAME>
3-[bis(4-fluorophenyl)methoxy]-8-(1-naphthylmethyl)-8-azabicyclo[3.2.1]octane

> <PUBCHEM_IUPAC_CAS_NAME>
3-[bis(4-fluorophenyl)methoxy]-8-(1-naphthalenylmethyl)-8-azabicyclo[3.2.1]octane

> <PUBCHEM_IUPAC_NAME_MARKUP>
3-[bis(4-fluorophenyl)methoxy]-8-(naphthalen-1-ylmethyl)-8-azabicyclo[3.2.1]octane

> <PUBCHEM_IUPAC_NAME>
3-[bis(4-fluorophenyl)methoxy]-8-(naphthalen-1-ylmethyl)-8-azabicyclo[3.2.1]octane

> <PUBCHEM_IUPAC_SYSTEMATIC_NAME>
3-[bis(4-fluorophenyl)methoxy]-8-(naphthalen-1-ylmethyl)-8-azabicyclo[3.2.1]octane

> <PUBCHEM_IUPAC_TRADITIONAL_NAME>
3-[bis(4-fluorophenyl)methoxy]-8-(1-naphthylmethyl)-8-azabicyclo[3.2.1]octane

> <PUBCHEM_IUPAC_INCHI>
InChI=1S/C31H29F2NO/c32-25-12-8-22(9-13-25)31(23-10-14-26(33)15-11-23)35-29-18-27-16-17-28(19-29)34(27)20-24-6-3-5-21-4-1-2-7-30(21)24/h1-15,27-29,31H,16-20H2

> <PUBCHEM_IUPAC_INCHIKEY>
WCFAGISVWLBGAX-UHFFFAOYSA-N

> <PUBCHEM_XLOGP3_AA>
7.4

> <PUBCHEM_EXACT_MASS>
469.22172087

> <PUBCHEM_MOLECULAR_FORMULA>
C31H29F2NO

> <PUBCHEM_MOLECULAR_WEIGHT>
469.6

> <PUBCHEM_OPENEYE_CAN_SMILES>
C1CC2CC(CC1N2CC3=CC=CC4=CC=CC=C43)OC(C5=CC=C(C=C5)F)C6=CC=C(C=C6)F

> <PUBCHEM_OPENEYE_ISO_SMILES>
C1CC2CC(CC1N2CC3=CC=CC4=CC=CC=C43)OC(C5=CC=C(C=C5)F)C6=CC=C(C=C6)F

> <PUBCHEM_CACTVS_TPSA>
12.5

> <PUBCHEM_MONOISOTOPIC_WEIGHT>
469.22172087

> <PUBCHEM_TOTAL_CHARGE>
0

> <PUBCHEM_HEAVY_ATOM_COUNT>
35

> <PUBCHEM_ATOM_DEF_STEREO_COUNT>
0

> <PUBCHEM_ATOM_UDEF_STEREO_COUNT>
2

> <PUBCHEM_BOND_DEF_STEREO_COUNT>
0

> <PUBCHEM_BOND_UDEF_STEREO_COUNT>
0

> <PUBCHEM_ISOTOPIC_ATOM_COUNT>
0

> <PUBCHEM_COMPONENT_COUNT>
1

> <PUBCHEM_CACTVS_TAUTO_COUNT>
-1

> <PUBCHEM_COORDINATE_TYPE>
1
5
255

> <PUBCHEM_BONDANNOTATIONS>
13  15  8
13  16  8
15  19  8
15  21  8
16  20  8
17  23  8
17  25  8
18  24  8
18  26  8
19  22  8
19  27  8
20  22  8
21  28  8
23  30  8
24  31  8
25  32  8
26  33  8
27  29  8
28  29  8
30  34  8
31  35  8
32  34  8
33  35  8
5  7  3
6  8  3

$$$$
