44353393
  -OEChem-09292322202D

 66 68  0     1  0  0  0  0  0999 V2000
    9.8680   -0.4962    0.0000 O   0  0  0  0  0  0  0  0  0  0  0  0
   14.1846    3.0204    0.0000 O   0  0  0  0  0  0  0  0  0  0  0  0
    4.5981   -0.5204    0.0000 N   0  0  0  0  0  0  0  0  0  0  0  0
   10.7282    1.0071    0.0000 N   0  0  0  0  0  0  0  0  0  0  0  0
    5.4641   -0.0204    0.0000 C   0  0  3  0  0  0  0  0  0  0  0  0
    5.4641    0.9796    0.0000 C   0  0  0  0  0  0  0  0  0  0  0  0
    6.3301   -0.5204    0.0000 C   0  0  0  0  0  0  0  0  0  0  0  0
    6.3301    1.4796    0.0000 C   0  0  0  0  0  0  0  0  0  0  0  0
    7.1962   -0.0204    0.0000 C   0  0  0  0  0  0  0  0  0  0  0  0
    7.1962    0.9796    0.0000 C   0  0  0  0  0  0  0  0  0  0  0  0
    3.7320   -0.0204    0.0000 C   0  0  0  0  0  0  0  0  0  0  0  0
    4.5981   -1.5204    0.0000 C   0  0  0  0  0  0  0  0  0  0  0  0
    8.0901    1.5143    0.0000 C   0  0  0  0  0  0  0  0  0  0  0  0
    8.0901   -0.5551    0.0000 C   0  0  0  0  0  0  0  0  0  0  0  0
    2.8660   -0.5204    0.0000 C   0  0  0  0  0  0  0  0  0  0  0  0
    3.7320   -2.0204    0.0000 C   0  0  0  0  0  0  0  0  0  0  0  0
    8.9962    1.0004    0.0000 C   0  0  0  0  0  0  0  0  0  0  0  0
    8.9962   -0.0412    0.0000 C   0  0  0  0  0  0  0  0  0  0  0  0
    9.8602    1.5037    0.0000 C   0  0  0  0  0  0  0  0  0  0  0  0
    2.0000   -0.0204    0.0000 C   0  0  0  0  0  0  0  0  0  0  0  0
    3.7320   -3.0204    0.0000 C   0  0  0  0  0  0  0  0  0  0  0  0
   11.5923    1.5104    0.0000 C   0  0  0  0  0  0  0  0  0  0  0  0
   10.7321    0.0071    0.0000 C   0  0  0  0  0  0  0  0  0  0  0  0
   12.4602    1.0138    0.0000 C   0  0  0  0  0  0  0  0  0  0  0  0
   11.5884    2.5104    0.0000 C   0  0  0  0  0  0  0  0  0  0  0  0
   11.6000   -0.4896    0.0000 C   0  0  0  0  0  0  0  0  0  0  0  0
   13.3243    1.5171    0.0000 C   0  0  0  0  0  0  0  0  0  0  0  0
   12.4525    3.0137    0.0000 C   0  0  0  0  0  0  0  0  0  0  0  0
   13.3205    2.5171    0.0000 C   0  0  0  0  0  0  0  0  0  0  0  0
   15.0525    2.5238    0.0000 C   0  0  0  0  0  0  0  0  0  0  0  0
    5.4641   -0.6404    0.0000 H   0  0  0  0  0  0  0  0  0  0  0  0
    5.2520    1.5622    0.0000 H   0  0  0  0  0  0  0  0  0  0  0  0
    4.8535    0.8719    0.0000 H   0  0  0  0  0  0  0  0  0  0  0  0
    5.9316   -0.9954    0.0000 H   0  0  0  0  0  0  0  0  0  0  0  0
    6.7287   -0.9954    0.0000 H   0  0  0  0  0  0  0  0  0  0  0  0
    6.7287    1.9545    0.0000 H   0  0  0  0  0  0  0  0  0  0  0  0
    5.9316    1.9545    0.0000 H   0  0  0  0  0  0  0  0  0  0  0  0
    4.1306    0.4545    0.0000 H   0  0  0  0  0  0  0  0  0  0  0  0
    3.3335    0.4545    0.0000 H   0  0  0  0  0  0  0  0  0  0  0  0
    4.8101   -2.1030    0.0000 H   0  0  0  0  0  0  0  0  0  0  0  0
    5.2087   -1.4128    0.0000 H   0  0  0  0  0  0  0  0  0  0  0  0
    8.0829    2.1342    0.0000 H   0  0  0  0  0  0  0  0  0  0  0  0
    8.0829   -1.1750    0.0000 H   0  0  0  0  0  0  0  0  0  0  0  0
    2.4675   -0.9954    0.0000 H   0  0  0  0  0  0  0  0  0  0  0  0
    3.2646   -0.9954    0.0000 H   0  0  0  0  0  0  0  0  0  0  0  0
    3.5200   -1.4378    0.0000 H   0  0  0  0  0  0  0  0  0  0  0  0
    3.1215   -2.1281    0.0000 H   0  0  0  0  0  0  0  0  0  0  0  0
    9.5319   -0.3533    0.0000 H   0  0  0  0  0  0  0  0  0  0  0  0
   10.2569    1.9802    0.0000 H   0  0  0  0  0  0  0  0  0  0  0  0
    9.4599    1.9771    0.0000 H   0  0  0  0  0  0  0  0  0  0  0  0
    2.3100    0.5165    0.0000 H   0  0  0  0  0  0  0  0  0  0  0  0
    1.4631    0.2896    0.0000 H   0  0  0  0  0  0  0  0  0  0  0  0
    1.6900   -0.5574    0.0000 H   0  0  0  0  0  0  0  0  0  0  0  0
    3.1120   -3.0204    0.0000 H   0  0  0  0  0  0  0  0  0  0  0  0
    3.7320   -3.6404    0.0000 H   0  0  0  0  0  0  0  0  0  0  0  0
    4.3520   -3.0204    0.0000 H   0  0  0  0  0  0  0  0  0  0  0  0
   12.4626    0.3938    0.0000 H   0  0  0  0  0  0  0  0  0  0  0  0
   11.0503    2.8183    0.0000 H   0  0  0  0  0  0  0  0  0  0  0  0
   11.2921   -1.0277    0.0000 H   0  0  0  0  0  0  0  0  0  0  0  0
   12.1381   -0.7975    0.0000 H   0  0  0  0  0  0  0  0  0  0  0  0
   11.9079    0.0486    0.0000 H   0  0  0  0  0  0  0  0  0  0  0  0
   13.8625    1.2092    0.0000 H   0  0  0  0  0  0  0  0  0  0  0  0
   12.4501    3.6337    0.0000 H   0  0  0  0  0  0  0  0  0  0  0  0
   14.7446    1.9856    0.0000 H   0  0  0  0  0  0  0  0  0  0  0  0
   15.5906    2.2158    0.0000 H   0  0  0  0  0  0  0  0  0  0  0  0
   15.3604    3.0619    0.0000 H   0  0  0  0  0  0  0  0  0  0  0  0
  1 23  2  0  0  0  0
  2 29  1  0  0  0  0
  2 30  1  0  0  0  0
  3  5  1  0  0  0  0
  3 11  1  0  0  0  0
  3 12  1  0  0  0  0
  4 19  1  0  0  0  0
  4 22  1  0  0  0  0
  4 23  1  0  0  0  0
  5  6  1  0  0  0  0
  5  7  1  0  0  0  0
  5 31  1  0  0  0  0
  6  8  1  0  0  0  0
  6 32  1  0  0  0  0
  6 33  1  0  0  0  0
  7  9  1  0  0  0  0
  7 34  1  0  0  0  0
  7 35  1  0  0  0  0
  8 10  1  0  0  0  0
  8 36  1  0  0  0  0
  8 37  1  0  0  0  0
  9 10  2  0  0  0  0
  9 14  1  0  0  0  0
 10 13  1  0  0  0  0
 11 15  1  0  0  0  0
 11 38  1  0  0  0  0
 11 39  1  0  0  0  0
 12 16  1  0  0  0  0
 12 40  1  0  0  0  0
 12 41  1  0  0  0  0
 13 17  2  0  0  0  0
 13 42  1  0  0  0  0
 14 18  2  0  0  0  0
 14 43  1  0  0  0  0
 15 20  1  0  0  0  0
 15 44  1  0  0  0  0
 15 45  1  0  0  0  0
 16 21  1  0  0  0  0
 16 46  1  0  0  0  0
 16 47  1  0  0  0  0
 17 18  1  0  0  0  0
 17 19  1  0  0  0  0
 18 48  1  0  0  0  0
 19 49  1  0  0  0  0
 19 50  1  0  0  0  0
 20 51  1  0  0  0  0
 20 52  1  0  0  0  0
 20 53  1  0  0  0  0
 21 54  1  0  0  0  0
 21 55  1  0  0  0  0
 21 56  1  0  0  0  0
 22 24  2  0  0  0  0
 22 25  1  0  0  0  0
 23 26  1  0  0  0  0
 24 27  1  0  0  0  0
 24 57  1  0  0  0  0
 25 28  2  0  0  0  0
 25 58  1  0  0  0  0
 26 59  1  0  0  0  0
 26 60  1  0  0  0  0
 26 61  1  0  0  0  0
 27 29  2  0  0  0  0
 27 62  1  0  0  0  0
 28 29  1  0  0  0  0
 28 63  1  0  0  0  0
 30 64  1  0  0  0  0
 30 65  1  0  0  0  0
 30 66  1  0  0  0  0
M  END
> <PUBCHEM_COMPOUND_CID>
44353393

> <PUBCHEM_COMPOUND_CANONICALIZED>
1

> <PUBCHEM_CACTVS_COMPLEXITY>
511

> <PUBCHEM_CACTVS_HBOND_ACCEPTOR>
3

> <PUBCHEM_CACTVS_HBOND_DONOR>
0

> <PUBCHEM_CACTVS_ROTATABLE_BOND>
9

> <PUBCHEM_CACTVS_SUBSKEYS>
AAADcfB7MAAAAAAAAAAAAAAAAAAAAAAAAAAwYMAAAAAAAADBQAAAHgAAAAAADCzBmAYyxoMABACIAiVSUACCCAAhIgAIiAAObIgMJiLEsZuEMChkxhHI6AewwMAOwEACAAAQAACQgASAACAAAAAAAAAAAA==

> <PUBCHEM_IUPAC_OPENEYE_NAME>
N-[[2-(dipropylamino)tetralin-6-yl]methyl]-N-(4-methoxyphenyl)acetamide

> <PUBCHEM_IUPAC_CAS_NAME>
N-[[6-(dipropylamino)-5,6,7,8-tetrahydronaphthalen-2-yl]methyl]-N-(4-methoxyphenyl)acetamide

> <PUBCHEM_IUPAC_NAME_MARKUP>
<I>N</I>-[[6-(dipropylamino)-5,6,7,8-tetrahydronaphthalen-2-yl]methyl]-<I>N</I>-(4-methoxyphenyl)acetamide

> <PUBCHEM_IUPAC_NAME>
N-[[6-(dipropylamino)-5,6,7,8-tetrahydronaphthalen-2-yl]methyl]-N-(4-methoxyphenyl)acetamide

> <PUBCHEM_IUPAC_SYSTEMATIC_NAME>
N-[[6-(dipropylamino)-5,6,7,8-tetrahydronaphthalen-2-yl]methyl]-N-(4-methoxyphenyl)ethanamide

> <PUBCHEM_IUPAC_TRADITIONAL_NAME>
N-[[2-(dipropylamino)tetralin-6-yl]methyl]-N-(4-methoxyphenyl)acetamide

> <PUBCHEM_IUPAC_INCHI>
InChI=1S/C26H36N2O2/c1-5-15-27(16-6-2)25-10-9-22-17-21(7-8-23(22)18-25)19-28(20(3)29)24-11-13-26(30-4)14-12-24/h7-8,11-14,17,25H,5-6,9-10,15-16,18-19H2,1-4H3

> <PUBCHEM_IUPAC_INCHIKEY>
KRBRCRMUFRFNGT-UHFFFAOYSA-N

> <PUBCHEM_XLOGP3_AA>
5.3

> <PUBCHEM_EXACT_MASS>
408.277678395

> <PUBCHEM_MOLECULAR_FORMULA>
C26H36N2O2

> <PUBCHEM_MOLECULAR_WEIGHT>
408.6

> <PUBCHEM_OPENEYE_CAN_SMILES>
CCCN(CCC)C1CCC2=C(C1)C=CC(=C2)CN(C3=CC=C(C=C3)OC)C(=O)C

> <PUBCHEM_OPENEYE_ISO_SMILES>
CCCN(CCC)C1CCC2=C(C1)C=CC(=C2)CN(C3=CC=C(C=C3)OC)C(=O)C

> <PUBCHEM_CACTVS_TPSA>
32.8

> <PUBCHEM_MONOISOTOPIC_WEIGHT>
408.277678395

> <PUBCHEM_TOTAL_CHARGE>
0

> <PUBCHEM_HEAVY_ATOM_COUNT>
30

> <PUBCHEM_ATOM_DEF_STEREO_COUNT>
0

> <PUBCHEM_ATOM_UDEF_STEREO_COUNT>
1

> <PUBCHEM_BOND_DEF_STEREO_COUNT>
0

> <PUBCHEM_BOND_UDEF_STEREO_COUNT>
0

> <PUBCHEM_ISOTOPIC_ATOM_COUNT>
0

> <PUBCHEM_COMPONENT_COUNT>
1

> <PUBCHEM_CACTVS_TAUTO_COUNT>
-1

> <PUBCHEM_COORDINATE_TYPE>
1
5
255

> <PUBCHEM_BONDANNOTATIONS>
10  13  8
13  17  8
14  18  8
17  18  8
22  24  8
22  25  8
24  27  8
25  28  8
27  29  8
28  29  8
5  3  3
9  10  8
9  14  8

$$$$
