49860422
  -OEChem-09292322522D

 53 55  0     1  0  0  0  0  0999 V2000
    4.0036    0.0000    0.0000 Cl  0  0  0  0  0  0  0  0  0  0  0  0
    8.3966    8.0425    0.0000 O   0  0  0  0  0  0  0  0  0  0  0  0
    2.3412    4.5080    0.0000 O   0  0  0  0  0  0  0  0  0  0  0  0
    4.0665    7.5425    0.0000 O   0  0  0  0  0  0  0  0  0  0  0  0
    2.3181    6.5079    0.0000 O   0  0  0  0  0  0  0  0  0  0  0  0
    6.6646    9.0425    0.0000 N   0  0  0  0  0  0  0  0  0  0  0  0
    0.6209    3.4881    0.0000 N   0  0  0  0  0  0  0  0  0  0  0  0
    5.7986    9.5425    0.0000 C   0  0  0  0  0  0  0  0  0  0  0  0
    6.6646    8.0425    0.0000 C   0  0  0  0  0  0  0  0  0  0  0  0
    7.5306    9.5425    0.0000 C   0  0  0  0  0  0  0  0  0  0  0  0
    1.4695    4.9980    0.0000 C   0  0  1  0  0  0  0  0  0  0  0  0
    4.9325    9.0425    0.0000 C   0  0  0  0  0  0  0  0  0  0  0  0
    7.5306    7.5425    0.0000 C   0  0  0  0  0  0  0  0  0  0  0  0
    8.3966    9.0425    0.0000 C   0  0  0  0  0  0  0  0  0  0  0  0
    0.6093    4.4880    0.0000 C   0  0  0  0  0  0  0  0  0  0  0  0
    1.4579    5.9979    0.0000 C   0  0  0  0  0  0  0  0  0  0  0  0
    4.9325    8.0425    0.0000 C   0  0  0  0  0  0  0  0  0  0  0  0
    1.4926    2.9981    0.0000 C   0  0  0  0  0  0  0  0  0  0  0  0
    4.0665    9.5425    0.0000 C   0  0  0  0  0  0  0  0  0  0  0  0
    2.3528    3.5081    0.0000 C   0  0  0  0  0  0  0  0  0  0  0  0
    3.2005    9.0425    0.0000 C   0  0  0  0  0  0  0  0  0  0  0  0
    3.2005    8.0425    0.0000 C   0  0  0  0  0  0  0  0  0  0  0  0
    2.3065    7.5078    0.0000 C   0  0  0  0  0  0  0  0  0  0  0  0
    2.3065    9.5771    0.0000 C   0  0  0  0  0  0  0  0  0  0  0  0
    1.4005    8.0217    0.0000 C   0  0  0  0  0  0  0  0  0  0  0  0
    1.4005    9.0633    0.0000 C   0  0  0  0  0  0  0  0  0  0  0  0
    6.1971   10.0174    0.0000 H   0  0  0  0  0  0  0  0  0  0  0  0
    5.4000   10.0174    0.0000 H   0  0  0  0  0  0  0  0  0  0  0  0
    6.0540    8.1502    0.0000 H   0  0  0  0  0  0  0  0  0  0  0  0
    6.4525    7.4599    0.0000 H   0  0  0  0  0  0  0  0  0  0  0  0
    7.9291   10.0174    0.0000 H   0  0  0  0  0  0  0  0  0  0  0  0
    7.1321   10.0174    0.0000 H   0  0  0  0  0  0  0  0  0  0  0  0
    2.0028    5.3142    0.0000 H   0  0  0  0  0  0  0  0  0  0  0  0
    7.1321    7.0675    0.0000 H   0  0  0  0  0  0  0  0  0  0  0  0
    7.9291    7.0675    0.0000 H   0  0  0  0  0  0  0  0  0  0  0  0
    9.0072    8.9348    0.0000 H   0  0  0  0  0  0  0  0  0  0  0  0
    8.6087    9.6251    0.0000 H   0  0  0  0  0  0  0  0  0  0  0  0
    0.3905    5.0681    0.0000 H   0  0  0  0  0  0  0  0  0  0  0  0
    0.0000    4.3733    0.0000 H   0  0  0  0  0  0  0  0  0  0  0  0
    1.2391    6.5780    0.0000 H   0  0  0  0  0  0  0  0  0  0  0  0
    0.8486    5.8832    0.0000 H   0  0  0  0  0  0  0  0  0  0  0  0
    5.1446    7.4599    0.0000 H   0  0  0  0  0  0  0  0  0  0  0  0
    5.5431    8.1502    0.0000 H   0  0  0  0  0  0  0  0  0  0  0  0
    1.0996    2.5186    0.0000 H   0  0  0  0  0  0  0  0  0  0  0  0
    1.8966    2.5278    0.0000 H   0  0  0  0  0  0  0  0  0  0  0  0
    4.0665   10.1625    0.0000 H   0  0  0  0  0  0  0  0  0  0  0  0
    2.5716    2.9280    0.0000 H   0  0  0  0  0  0  0  0  0  0  0  0
    2.9621    3.6228    0.0000 H   0  0  0  0  0  0  0  0  0  0  0  0
    0.0875    3.1719    0.0000 H   0  0  0  0  0  0  0  0  0  0  0  0
    2.3137   10.1971    0.0000 H   0  0  0  0  0  0  0  0  0  0  0  0
    0.8647    7.7096    0.0000 H   0  0  0  0  0  0  0  0  0  0  0  0
    0.8647    9.3754    0.0000 H   0  0  0  0  0  0  0  0  0  0  0  0
    5.0036    0.0000    0.0000 H   0  0  0  0  0  0  0  0  0  0  0  0
  1 53  1  0  0  0  0
  2 13  1  0  0  0  0
  2 14  1  0  0  0  0
  3 11  1  0  0  0  0
  3 20  1  0  0  0  0
  4 17  1  0  0  0  0
  4 22  1  0  0  0  0
  5 16  1  0  0  0  0
  5 23  1  0  0  0  0
  6  8  1  0  0  0  0
  6  9  1  0  0  0  0
  6 10  1  0  0  0  0
  7 15  1  0  0  0  0
  7 18  1  0  0  0  0
  7 49  1  0  0  0  0
  8 12  1  0  0  0  0
  8 27  1  0  0  0  0
  8 28  1  0  0  0  0
  9 13  1  0  0  0  0
  9 29  1  0  0  0  0
  9 30  1  0  0  0  0
 10 14  1  0  0  0  0
 10 31  1  0  0  0  0
 10 32  1  0  0  0  0
 11 15  1  0  0  0  0
 11 16  1  1  0  0  0
 11 33  1  0  0  0  0
 12 17  1  0  0  0  0
 12 19  2  0  0  0  0
 13 34  1  0  0  0  0
 13 35  1  0  0  0  0
 14 36  1  0  0  0  0
 14 37  1  0  0  0  0
 15 38  1  0  0  0  0
 15 39  1  0  0  0  0
 16 40  1  0  0  0  0
 16 41  1  0  0  0  0
 17 42  1  0  0  0  0
 17 43  1  0  0  0  0
 18 20  1  0  0  0  0
 18 44  1  0  0  0  0
 18 45  1  0  0  0  0
 19 21  1  0  0  0  0
 19 46  1  0  0  0  0
 20 47  1  0  0  0  0
 20 48  1  0  0  0  0
 21 22  2  0  0  0  0
 21 24  1  0  0  0  0
 22 23  1  0  0  0  0
 23 25  2  0  0  0  0
 24 26  2  0  0  0  0
 24 50  1  0  0  0  0
 25 26  1  0  0  0  0
 25 51  1  0  0  0  0
 26 52  1  0  0  0  0
M  END
> <PUBCHEM_COMPOUND_CID>
49860422

> <PUBCHEM_COMPOUND_CANONICALIZED>
1

> <PUBCHEM_CACTVS_COMPLEXITY>
453

> <PUBCHEM_CACTVS_HBOND_ACCEPTOR>
6

> <PUBCHEM_CACTVS_HBOND_DONOR>
2

> <PUBCHEM_CACTVS_ROTATABLE_BOND>
5

> <PUBCHEM_CACTVS_SUBSKEYS>
AAADceB7OAAEAAAAAAAAAAAAAAAAAAAAAAA8WIEAAAAAAACBAAAAHgAQAAAADBThmAYwBoPABACAAiBCAACCCAAgIAAIiIAOiIgPJiKEMRqHOCKm0BGaqAeAwDAOAAABAAAIQAAAAAIAABCAAAAAAAAAAA==

> <PUBCHEM_IUPAC_OPENEYE_NAME>
(2S)-2-[[3-(morpholinomethyl)-2H-chromen-8-yl]oxymethyl]morpholine;hydrochloride

> <PUBCHEM_IUPAC_CAS_NAME>
(2S)-2-[[3-(4-morpholinylmethyl)-2H-1-benzopyran-8-yl]oxymethyl]morpholine;hydrochloride

> <PUBCHEM_IUPAC_NAME_MARKUP>
(2<I>S</I>)-2-[[3-(morpholin-4-ylmethyl)-2<I>H</I>-chromen-8-yl]oxymethyl]morpholine;hydrochloride

> <PUBCHEM_IUPAC_NAME>
(2S)-2-[[3-(morpholin-4-ylmethyl)-2H-chromen-8-yl]oxymethyl]morpholine;hydrochloride

> <PUBCHEM_IUPAC_SYSTEMATIC_NAME>
(2S)-2-[[3-(morpholin-4-ylmethyl)-2H-chromen-8-yl]oxymethyl]morpholine;hydrochloride

> <PUBCHEM_IUPAC_TRADITIONAL_NAME>
(2S)-2-[[3-(morpholinomethyl)-2H-chromen-8-yl]oxymethyl]morpholine;hydrochloride

> <PUBCHEM_IUPAC_INCHI>
InChI=1S/C19H26N2O4.ClH/c1-2-16-10-15(12-21-5-8-22-9-6-21)13-25-19(16)18(3-1)24-14-17-11-20-4-7-23-17;/h1-3,10,17,20H,4-9,11-14H2;1H/t17-;/m0./s1

> <PUBCHEM_IUPAC_INCHIKEY>
YJXRBQIKJUJCPY-LMOVPXPDSA-N

> <PUBCHEM_EXACT_MASS>
382.1659350

> <PUBCHEM_MOLECULAR_FORMULA>
C19H27ClN2O4

> <PUBCHEM_MOLECULAR_WEIGHT>
382.9

> <PUBCHEM_OPENEYE_CAN_SMILES>
C1COC(CN1)COC2=CC=CC3=C2OCC(=C3)CN4CCOCC4.Cl

> <PUBCHEM_OPENEYE_ISO_SMILES>
C1CO[C@@H](CN1)COC2=CC=CC3=C2OCC(=C3)CN4CCOCC4.Cl

> <PUBCHEM_CACTVS_TPSA>
52.2

> <PUBCHEM_MONOISOTOPIC_WEIGHT>
382.1659350

> <PUBCHEM_TOTAL_CHARGE>
0

> <PUBCHEM_HEAVY_ATOM_COUNT>
26

> <PUBCHEM_ATOM_DEF_STEREO_COUNT>
1

> <PUBCHEM_ATOM_UDEF_STEREO_COUNT>
0

> <PUBCHEM_BOND_DEF_STEREO_COUNT>
0

> <PUBCHEM_BOND_UDEF_STEREO_COUNT>
0

> <PUBCHEM_ISOTOPIC_ATOM_COUNT>
0

> <PUBCHEM_COMPONENT_COUNT>
2

> <PUBCHEM_CACTVS_TAUTO_COUNT>
-1

> <PUBCHEM_COORDINATE_TYPE>
1
5
255

> <PUBCHEM_BONDANNOTATIONS>
11  16  5
21  22  8
21  24  8
22  23  8
23  25  8
24  26  8
25  26  8

$$$$
