135882460
  -OEChem-09292322402D

 46 48  0     0  0  0  0  0  0999 V2000
    6.3981   -2.0000    0.0000 O   0  0  0  0  0  0  0  0  0  0  0  0
    4.6660   -5.0000    0.0000 O   0  0  0  0  0  0  0  0  0  0  0  0
    8.1301    4.0000    0.0000 N   0  0  0  0  0  0  0  0  0  0  0  0
    5.5321   -3.5000    0.0000 N   0  0  0  0  0  0  0  0  0  0  0  0
    5.5321   -0.5000    0.0000 N   0  0  0  0  0  0  0  0  0  0  0  0
    7.2641    2.5000    0.0000 C   0  0  0  0  0  0  0  0  0  0  0  0
    7.2641    3.5000    0.0000 C   0  0  0  0  0  0  0  0  0  0  0  0
    6.3981    1.0000    0.0000 C   0  0  0  0  0  0  0  0  0  0  0  0
    3.8000   -2.5000    0.0000 C   0  0  0  0  0  0  0  0  0  0  0  0
    6.3981    2.0000    0.0000 C   0  0  0  0  0  0  0  0  0  0  0  0
    4.6660   -2.0000    0.0000 C   0  0  0  0  0  0  0  0  0  0  0  0
    3.8000   -3.5000    0.0000 C   0  0  0  0  0  0  0  0  0  0  0  0
    5.5321    0.5000    0.0000 C   0  0  0  0  0  0  0  0  0  0  0  0
    8.1301    2.0000    0.0000 C   0  0  0  0  0  0  0  0  0  0  0  0
    7.2641    0.5000    0.0000 C   0  0  0  0  0  0  0  0  0  0  0  0
    5.5321   -2.5000    0.0000 C   0  0  0  0  0  0  0  0  0  0  0  0
    8.1301    1.0000    0.0000 C   0  0  0  0  0  0  0  0  0  0  0  0
    4.6660   -4.0000    0.0000 C   0  0  0  0  0  0  0  0  0  0  0  0
    2.9061   -1.9653    0.0000 C   0  0  0  0  0  0  0  0  0  0  0  0
    4.6660   -1.0000    0.0000 C   0  0  0  0  0  0  0  0  0  0  0  0
    2.9061   -4.0347    0.0000 C   0  0  0  0  0  0  0  0  0  0  0  0
    8.1301    5.0000    0.0000 C   0  0  0  0  0  0  0  0  0  0  0  0
    8.9962    3.5000    0.0000 C   0  0  0  0  0  0  0  0  0  0  0  0
    2.0000   -2.4792    0.0000 C   0  0  0  0  0  0  0  0  0  0  0  0
    2.0000   -3.5208    0.0000 C   0  0  0  0  0  0  0  0  0  0  0  0
    7.0521    4.0826    0.0000 H   0  0  0  0  0  0  0  0  0  0  0  0
    6.6535    3.3923    0.0000 H   0  0  0  0  0  0  0  0  0  0  0  0
    5.8612    2.3100    0.0000 H   0  0  0  0  0  0  0  0  0  0  0  0
    5.3200    1.0826    0.0000 H   0  0  0  0  0  0  0  0  0  0  0  0
    4.9215    0.3923    0.0000 H   0  0  0  0  0  0  0  0  0  0  0  0
    8.6671    2.3100    0.0000 H   0  0  0  0  0  0  0  0  0  0  0  0
    7.2641   -0.1200    0.0000 H   0  0  0  0  0  0  0  0  0  0  0  0
    8.6671    0.6900    0.0000 H   0  0  0  0  0  0  0  0  0  0  0  0
    2.9132   -1.3454    0.0000 H   0  0  0  0  0  0  0  0  0  0  0  0
    4.1291   -0.6900    0.0000 H   0  0  0  0  0  0  0  0  0  0  0  0
    2.9132   -4.6546    0.0000 H   0  0  0  0  0  0  0  0  0  0  0  0
    6.0690   -3.8100    0.0000 H   0  0  0  0  0  0  0  0  0  0  0  0
    8.7501    5.0000    0.0000 H   0  0  0  0  0  0  0  0  0  0  0  0
    8.1301    5.6200    0.0000 H   0  0  0  0  0  0  0  0  0  0  0  0
    7.5101    5.0000    0.0000 H   0  0  0  0  0  0  0  0  0  0  0  0
    8.6862    2.9631    0.0000 H   0  0  0  0  0  0  0  0  0  0  0  0
    9.5331    3.1900    0.0000 H   0  0  0  0  0  0  0  0  0  0  0  0
    9.3062    4.0369    0.0000 H   0  0  0  0  0  0  0  0  0  0  0  0
    1.4643   -2.1671    0.0000 H   0  0  0  0  0  0  0  0  0  0  0  0
    1.4643   -3.8329    0.0000 H   0  0  0  0  0  0  0  0  0  0  0  0
    6.9350   -2.3100    0.0000 H   0  0  0  0  0  0  0  0  0  0  0  0
  1 16  1  0  0  0  0
  1 46  1  0  0  0  0
  2 18  2  0  0  0  0
  3  7  1  0  0  0  0
  3 22  1  0  0  0  0
  3 23  1  0  0  0  0
  4 16  1  0  0  0  0
  4 18  1  0  0  0  0
  4 37  1  0  0  0  0
  5 13  1  0  0  0  0
  5 20  2  0  0  0  0
  6  7  1  0  0  0  0
  6 10  1  0  0  0  0
  6 14  2  0  0  0  0
  7 26  1  0  0  0  0
  7 27  1  0  0  0  0
  8 10  2  0  0  0  0
  8 13  1  0  0  0  0
  8 15  1  0  0  0  0
  9 11  1  0  0  0  0
  9 12  1  0  0  0  0
  9 19  2  0  0  0  0
 10 28  1  0  0  0  0
 11 16  2  0  0  0  0
 11 20  1  0  0  0  0
 12 18  1  0  0  0  0
 12 21  2  0  0  0  0
 13 29  1  0  0  0  0
 13 30  1  0  0  0  0
 14 17  1  0  0  0  0
 14 31  1  0  0  0  0
 15 17  2  0  0  0  0
 15 32  1  0  0  0  0
 17 33  1  0  0  0  0
 19 24  1  0  0  0  0
 19 34  1  0  0  0  0
 20 35  1  0  0  0  0
 21 25  1  0  0  0  0
 21 36  1  0  0  0  0
 22 38  1  0  0  0  0
 22 39  1  0  0  0  0
 22 40  1  0  0  0  0
 23 41  1  0  0  0  0
 23 42  1  0  0  0  0
 23 43  1  0  0  0  0
 24 25  2  0  0  0  0
 24 44  1  0  0  0  0
 25 45  1  0  0  0  0
M  END
> <PUBCHEM_COMPOUND_CID>
135882460

> <PUBCHEM_COMPOUND_CANONICALIZED>
1

> <PUBCHEM_CACTVS_COMPLEXITY>
541

> <PUBCHEM_CACTVS_HBOND_ACCEPTOR>
4

> <PUBCHEM_CACTVS_HBOND_DONOR>
2

> <PUBCHEM_CACTVS_ROTATABLE_BOND>
5

> <PUBCHEM_CACTVS_SUBSKEYS>
AAADceB7MAAAAAAAAAAAAAAAAAAAAAAAAAAwYIAAAAAAAACBQAAAHgAQCAAADADBmAQyAIPAAgCoAjFzVACCAAAkIAAIiAEoBNkIIDKAlRGEIQhggAAIiYcYiMCOgAACAAAQAAAAAAQAACAAAAAAAAAAAA==

> <PUBCHEM_IUPAC_OPENEYE_NAME>
4-[[3-[(dimethylamino)methyl]phenyl]methyliminomethyl]-3-hydroxy-2H-isoquinolin-1-one

> <PUBCHEM_IUPAC_CAS_NAME>
4-[[3-[(dimethylamino)methyl]phenyl]methyliminomethyl]-3-hydroxy-2H-isoquinolin-1-one

> <PUBCHEM_IUPAC_NAME_MARKUP>
4-[[3-[(dimethylamino)methyl]phenyl]methyliminomethyl]-3-hydroxy-2<I>H</I>-isoquinolin-1-one

> <PUBCHEM_IUPAC_NAME>
4-[[3-[(dimethylamino)methyl]phenyl]methyliminomethyl]-3-hydroxy-2H-isoquinolin-1-one

> <PUBCHEM_IUPAC_SYSTEMATIC_NAME>
4-[[3-[(dimethylamino)methyl]phenyl]methyliminomethyl]-3-oxidanyl-2H-isoquinolin-1-one

> <PUBCHEM_IUPAC_TRADITIONAL_NAME>
4-[[3-[(dimethylamino)methyl]benzyl]iminomethyl]-3-hydroxy-isocarbostyril

> <PUBCHEM_IUPAC_INCHI>
InChI=1S/C20H21N3O2/c1-23(2)13-15-7-5-6-14(10-15)11-21-12-18-16-8-3-4-9-17(16)19(24)22-20(18)25/h3-10,12H,11,13H2,1-2H3,(H2,22,24,25)

> <PUBCHEM_IUPAC_INCHIKEY>
OBQHARHGICHKMG-UHFFFAOYSA-N

> <PUBCHEM_XLOGP3_AA>
2

> <PUBCHEM_EXACT_MASS>
335.16337692

> <PUBCHEM_MOLECULAR_FORMULA>
C20H21N3O2

> <PUBCHEM_MOLECULAR_WEIGHT>
335.4

> <PUBCHEM_OPENEYE_CAN_SMILES>
CN(C)CC1=CC=CC(=C1)CN=CC2=C(NC(=O)C3=CC=CC=C32)O

> <PUBCHEM_OPENEYE_ISO_SMILES>
CN(C)CC1=CC=CC(=C1)CN=CC2=C(NC(=O)C3=CC=CC=C32)O

> <PUBCHEM_CACTVS_TPSA>
64.9

> <PUBCHEM_MONOISOTOPIC_WEIGHT>
335.16337692

> <PUBCHEM_TOTAL_CHARGE>
0

> <PUBCHEM_HEAVY_ATOM_COUNT>
25

> <PUBCHEM_ATOM_DEF_STEREO_COUNT>
0

> <PUBCHEM_ATOM_UDEF_STEREO_COUNT>
0

> <PUBCHEM_BOND_DEF_STEREO_COUNT>
0

> <PUBCHEM_BOND_UDEF_STEREO_COUNT>
0

> <PUBCHEM_ISOTOPIC_ATOM_COUNT>
0

> <PUBCHEM_COMPONENT_COUNT>
1

> <PUBCHEM_CACTVS_TAUTO_COUNT>
-1

> <PUBCHEM_COORDINATE_TYPE>
1
5
255

> <PUBCHEM_BONDANNOTATIONS>
11  16  8
12  18  8
12  21  8
14  17  8
15  17  8
19  24  8
21  25  8
24  25  8
4  16  8
4  18  8
6  10  8
6  14  8
8  10  8
8  15  8
9  11  8
9  12  8
9  19  8

$$$$
