66801455
  -OEChem-09292322342D

 58 62  0     0  0  0  0  0  0999 V2000
    4.9889   -1.9817    0.0000 S   0  0  0  0  0  0  0  0  0  0  0  0
   13.3920    1.9334    0.0000 S   0  0  0  0  0  0  0  0  0  0  0  0
    5.9394   -2.2923    0.0000 O   0  0  0  0  0  0  0  0  0  0  0  0
    4.0384   -1.6710    0.0000 O   0  0  0  0  0  0  0  0  0  0  0  0
    8.8564    1.4886    0.0000 N   0  0  0  0  0  0  0  0  0  0  0  0
   10.8134    1.9010    0.0000 N   0  0  0  0  0  0  0  0  0  0  0  0
    5.2996   -1.0312    0.0000 N   0  0  0  0  0  0  0  0  0  0  0  0
   12.5290    1.4401    0.0000 N   0  0  0  0  0  0  0  0  0  0  0  0
    3.7320   -3.2369    0.0000 N   0  0  0  0  0  0  0  0  0  0  0  0
    4.6783   -4.5416    0.0000 N   0  0  0  0  0  0  0  0  0  0  0  0
    9.5243    0.7442    0.0000 C   0  0  0  0  0  0  0  0  0  0  0  0
    9.1671    2.4391    0.0000 C   0  0  0  0  0  0  0  0  0  0  0  0
   10.5028    0.9505    0.0000 C   0  0  0  0  0  0  0  0  0  0  0  0
   10.1456    2.6453    0.0000 C   0  0  0  0  0  0  0  0  0  0  0  0
    7.8779    1.2823    0.0000 C   0  0  0  0  0  0  0  0  0  0  0  0
    7.5673    0.3318    0.0000 C   0  0  0  0  0  0  0  0  0  0  0  0
    6.5888    0.1256    0.0000 C   0  0  0  0  0  0  0  0  0  0  0  0
   11.7920    2.1072    0.0000 C   0  0  0  0  0  0  0  0  0  0  0  0
    6.2781   -0.8249    0.0000 C   0  0  0  0  0  0  0  0  0  0  0  0
   12.1971    3.0150    0.0000 C   0  0  0  0  0  0  0  0  0  0  0  0
   13.1912    2.9070    0.0000 C   0  0  0  0  0  0  0  0  0  0  0  0
   11.7935    3.9299    0.0000 C   0  0  0  0  0  0  0  0  0  0  0  0
    4.6783   -2.9322    0.0000 C   0  0  0  0  0  0  0  0  0  0  0  0
   13.7818    3.7140    0.0000 C   0  0  0  0  0  0  0  0  0  0  0  0
   12.3841    4.7369    0.0000 C   0  0  0  0  0  0  0  0  0  0  0  0
   13.3782    4.6290    0.0000 C   0  0  0  0  0  0  0  0  0  0  0  0
    3.7320   -4.2369    0.0000 C   0  0  0  0  0  0  0  0  0  0  0  0
    5.2619   -3.7369    0.0000 C   0  0  0  0  0  0  0  0  0  0  0  0
    2.8660   -2.7369    0.0000 C   0  0  0  0  0  0  0  0  0  0  0  0
    2.8660   -4.7369    0.0000 C   0  0  0  0  0  0  0  0  0  0  0  0
    2.0000   -3.2369    0.0000 C   0  0  0  0  0  0  0  0  0  0  0  0
    2.0000   -4.2369    0.0000 C   0  0  0  0  0  0  0  0  0  0  0  0
    8.9979    0.4166    0.0000 H   0  0  0  0  0  0  0  0  0  0  0  0
    9.7555    0.1690    0.0000 H   0  0  0  0  0  0  0  0  0  0  0  0
    9.1465    3.0587    0.0000 H   0  0  0  0  0  0  0  0  0  0  0  0
    8.5533    2.5264    0.0000 H   0  0  0  0  0  0  0  0  0  0  0  0
   10.5234    0.3308    0.0000 H   0  0  0  0  0  0  0  0  0  0  0  0
   11.1166    0.8631    0.0000 H   0  0  0  0  0  0  0  0  0  0  0  0
   10.6720    2.9729    0.0000 H   0  0  0  0  0  0  0  0  0  0  0  0
    9.9143    3.2205    0.0000 H   0  0  0  0  0  0  0  0  0  0  0  0
    7.8574    1.9020    0.0000 H   0  0  0  0  0  0  0  0  0  0  0  0
    7.2641    1.3697    0.0000 H   0  0  0  0  0  0  0  0  0  0  0  0
    7.5878   -0.2878    0.0000 H   0  0  0  0  0  0  0  0  0  0  0  0
    8.1811    0.2445    0.0000 H   0  0  0  0  0  0  0  0  0  0  0  0
    6.5682    0.7453    0.0000 H   0  0  0  0  0  0  0  0  0  0  0  0
    5.9750    0.2129    0.0000 H   0  0  0  0  0  0  0  0  0  0  0  0
    6.2987   -1.4446    0.0000 H   0  0  0  0  0  0  0  0  0  0  0  0
    6.8919   -0.9123    0.0000 H   0  0  0  0  0  0  0  0  0  0  0  0
    4.8855   -0.5697    0.0000 H   0  0  0  0  0  0  0  0  0  0  0  0
   11.1771    3.9969    0.0000 H   0  0  0  0  0  0  0  0  0  0  0  0
   14.3982    3.6471    0.0000 H   0  0  0  0  0  0  0  0  0  0  0  0
   12.1339    5.3042    0.0000 H   0  0  0  0  0  0  0  0  0  0  0  0
   13.7444    5.1293    0.0000 H   0  0  0  0  0  0  0  0  0  0  0  0
    5.8819   -3.7369    0.0000 H   0  0  0  0  0  0  0  0  0  0  0  0
    2.8660   -2.1169    0.0000 H   0  0  0  0  0  0  0  0  0  0  0  0
    2.8660   -5.3569    0.0000 H   0  0  0  0  0  0  0  0  0  0  0  0
    1.4631   -2.9269    0.0000 H   0  0  0  0  0  0  0  0  0  0  0  0
    1.4631   -4.5469    0.0000 H   0  0  0  0  0  0  0  0  0  0  0  0
  1  3  2  0  0  0  0
  1  4  2  0  0  0  0
  1  7  1  0  0  0  0
  1 23  1  0  0  0  0
  2  8  1  0  0  0  0
  2 21  1  0  0  0  0
  5 11  1  0  0  0  0
  5 12  1  0  0  0  0
  5 15  1  0  0  0  0
  6 13  1  0  0  0  0
  6 14  1  0  0  0  0
  6 18  1  0  0  0  0
  7 19  1  0  0  0  0
  7 49  1  0  0  0  0
  8 18  2  0  0  0  0
  9 23  1  0  0  0  0
  9 27  1  0  0  0  0
  9 29  1  0  0  0  0
 10 27  2  0  0  0  0
 10 28  1  0  0  0  0
 11 13  1  0  0  0  0
 11 33  1  0  0  0  0
 11 34  1  0  0  0  0
 12 14  1  0  0  0  0
 12 35  1  0  0  0  0
 12 36  1  0  0  0  0
 13 37  1  0  0  0  0
 13 38  1  0  0  0  0
 14 39  1  0  0  0  0
 14 40  1  0  0  0  0
 15 16  1  0  0  0  0
 15 41  1  0  0  0  0
 15 42  1  0  0  0  0
 16 17  1  0  0  0  0
 16 43  1  0  0  0  0
 16 44  1  0  0  0  0
 17 19  1  0  0  0  0
 17 45  1  0  0  0  0
 17 46  1  0  0  0  0
 18 20  1  0  0  0  0
 19 47  1  0  0  0  0
 19 48  1  0  0  0  0
 20 21  1  0  0  0  0
 20 22  2  0  0  0  0
 21 24  2  0  0  0  0
 22 25  1  0  0  0  0
 22 50  1  0  0  0  0
 23 28  2  0  0  0  0
 24 26  1  0  0  0  0
 24 51  1  0  0  0  0
 25 26  2  0  0  0  0
 25 52  1  0  0  0  0
 26 53  1  0  0  0  0
 27 30  1  0  0  0  0
 28 54  1  0  0  0  0
 29 31  2  0  0  0  0
 29 55  1  0  0  0  0
 30 32  2  0  0  0  0
 30 56  1  0  0  0  0
 31 32  1  0  0  0  0
 31 57  1  0  0  0  0
 32 58  1  0  0  0  0
M  END
> <PUBCHEM_COMPOUND_CID>
66801455

> <PUBCHEM_COMPOUND_CANONICALIZED>
1

> <PUBCHEM_CACTVS_COMPLEXITY>
712

> <PUBCHEM_CACTVS_HBOND_ACCEPTOR>
8

> <PUBCHEM_CACTVS_HBOND_DONOR>
1

> <PUBCHEM_CACTVS_ROTATABLE_BOND>
8

> <PUBCHEM_CACTVS_SUBSKEYS>
AAADceB7sABgAAAAAAAAAAAAAAAAAWLAAAA8WIAAAAAAAFgB/gAAHAQQQAAADADBWwQ9sd9MGAKkAjJnZHDL0D0xEqBJ2Lw4dJiIaOLAmZGUIAxokALIyCcQgAAOAAAAAAAEAAAAAAAAAAgAAAAAAAAAAA==

> <PUBCHEM_IUPAC_OPENEYE_NAME>
N-[4-[4-(1,2-benzothiazol-3-yl)piperazin-1-yl]butyl]imidazo[1,2-a]pyridine-3-sulfonamide

> <PUBCHEM_IUPAC_CAS_NAME>
N-[4-[4-(1,2-benzothiazol-3-yl)-1-piperazinyl]butyl]-3-imidazo[1,2-a]pyridinesulfonamide

> <PUBCHEM_IUPAC_NAME_MARKUP>
<I>N</I>-[4-[4-(1,2-benzothiazol-3-yl)piperazin-1-yl]butyl]imidazo[1,2-a]pyridine-3-sulfonamide

> <PUBCHEM_IUPAC_NAME>
N-[4-[4-(1,2-benzothiazol-3-yl)piperazin-1-yl]butyl]imidazo[1,2-a]pyridine-3-sulfonamide

> <PUBCHEM_IUPAC_SYSTEMATIC_NAME>
N-[4-[4-(1,2-benzothiazol-3-yl)piperazin-1-yl]butyl]imidazo[1,2-a]pyridine-3-sulfonamide

> <PUBCHEM_IUPAC_TRADITIONAL_NAME>
N-[4-[4-(1,2-benzothiazol-3-yl)piperazino]butyl]imidazo[1,2-a]pyridine-3-sulfonamide

> <PUBCHEM_IUPAC_INCHI>
InChI=1S/C22H26N6O2S2/c29-32(30,21-17-23-20-9-3-5-12-28(20)21)24-10-4-6-11-26-13-15-27(16-14-26)22-18-7-1-2-8-19(18)31-25-22/h1-3,5,7-9,12,17,24H,4,6,10-11,13-16H2

> <PUBCHEM_IUPAC_INCHIKEY>
IWCRACLNBWLIAL-UHFFFAOYSA-N

> <PUBCHEM_XLOGP3_AA>
4.1

> <PUBCHEM_EXACT_MASS>
470.15586644

> <PUBCHEM_MOLECULAR_FORMULA>
C22H26N6O2S2

> <PUBCHEM_MOLECULAR_WEIGHT>
470.6

> <PUBCHEM_OPENEYE_CAN_SMILES>
C1CN(CCN1CCCCNS(=O)(=O)C2=CN=C3N2C=CC=C3)C4=NSC5=CC=CC=C54

> <PUBCHEM_OPENEYE_ISO_SMILES>
C1CN(CCN1CCCCNS(=O)(=O)C2=CN=C3N2C=CC=C3)C4=NSC5=CC=CC=C54

> <PUBCHEM_CACTVS_TPSA>
120

> <PUBCHEM_MONOISOTOPIC_WEIGHT>
470.15586644

> <PUBCHEM_TOTAL_CHARGE>
0

> <PUBCHEM_HEAVY_ATOM_COUNT>
32

> <PUBCHEM_ATOM_DEF_STEREO_COUNT>
0

> <PUBCHEM_ATOM_UDEF_STEREO_COUNT>
0

> <PUBCHEM_BOND_DEF_STEREO_COUNT>
0

> <PUBCHEM_BOND_UDEF_STEREO_COUNT>
0

> <PUBCHEM_ISOTOPIC_ATOM_COUNT>
0

> <PUBCHEM_COMPONENT_COUNT>
1

> <PUBCHEM_CACTVS_TAUTO_COUNT>
-1

> <PUBCHEM_COORDINATE_TYPE>
1
5
255

> <PUBCHEM_BONDANNOTATIONS>
10  27  8
10  28  8
18  20  8
2  21  8
2  8  8
20  21  8
20  22  8
21  24  8
22  25  8
23  28  8
24  26  8
25  26  8
27  30  8
29  31  8
30  32  8
31  32  8
8  18  8
9  23  8
9  27  8
9  29  8

$$$$
