24865727
  -OEChem-09292322242D

 67 71  0     1  0  0  0  0  0999 V2000
    4.7026    4.7755    0.0000 S   0  0  0  0  0  0  0  0  0  0  0  0
    7.1962   -2.7190    0.0000 O   0  0  0  0  0  0  0  0  0  0  0  0
    4.4947    5.7537    0.0000 O   0  0  0  0  0  0  0  0  0  0  0  0
    3.7081    4.8800    0.0000 O   0  0  0  0  0  0  0  0  0  0  0  0
    5.4641   -0.7190    0.0000 N   0  0  0  0  0  0  0  0  0  0  0  0
    4.5981    3.7810    0.0000 N   0  0  3  0  0  0  0  0  0  0  0  0
    8.9561   -5.7537    0.0000 N   0  0  0  0  0  0  0  0  0  0  0  0
    3.7320    0.2810    0.0000 C   0  0  0  0  0  0  0  0  0  0  0  0
    4.5981    0.7810    0.0000 C   0  0  0  0  0  0  0  0  0  0  0  0
    3.7320   -0.7190    0.0000 C   0  0  0  0  0  0  0  0  0  0  0  0
    5.4641    0.2810    0.0000 C   0  0  0  0  0  0  0  0  0  0  0  0
    4.5981   -1.2190    0.0000 C   0  0  0  0  0  0  0  0  0  0  0  0
    2.8660    0.7810    0.0000 C   0  0  0  0  0  0  0  0  0  0  0  0
    6.3301   -1.2190    0.0000 C   0  0  0  0  0  0  0  0  0  0  0  0
    2.8660    1.7810    0.0000 C   0  0  0  0  0  0  0  0  0  0  0  0
    5.5116    3.3743    0.0000 C   0  0  0  0  0  0  0  0  0  0  0  0
    5.6808    4.9834    0.0000 C   0  0  0  0  0  0  0  0  0  0  0  0
    6.1808    4.1174    0.0000 C   0  0  0  0  0  0  0  0  0  0  0  0
    3.7320    3.2810    0.0000 C   0  0  0  0  0  0  0  0  0  0  0  0
    3.7320    2.2810    0.0000 C   0  0  0  0  0  0  0  0  0  0  0  0
    6.3301   -2.2190    0.0000 C   0  0  0  0  0  0  0  0  0  0  0  0
    2.0000    2.2810    0.0000 C   0  0  0  0  0  0  0  0  0  0  0  0
    2.8660    3.7810    0.0000 C   0  0  0  0  0  0  0  0  0  0  0  0
    2.0000    3.2810    0.0000 C   0  0  0  0  0  0  0  0  0  0  0  0
    7.1962   -3.7190    0.0000 C   0  0  0  0  0  0  0  0  0  0  0  0
    8.0622   -4.2190    0.0000 C   0  0  0  0  0  0  0  0  0  0  0  0
    6.3301   -4.2190    0.0000 C   0  0  0  0  0  0  0  0  0  0  0  0
    8.0622   -5.2190    0.0000 C   0  0  0  0  0  0  0  0  0  0  0  0
    8.9561   -3.6843    0.0000 C   0  0  0  0  0  0  0  0  0  0  0  0
    6.3301   -5.2190    0.0000 C   0  0  0  0  0  0  0  0  0  0  0  0
    7.1962   -5.7190    0.0000 C   0  0  0  0  0  0  0  0  0  0  0  0
    9.8622   -4.1982    0.0000 C   0  0  0  0  0  0  0  0  0  0  0  0
    9.8622   -5.2398    0.0000 C   0  0  0  0  0  0  0  0  0  0  0  0
   10.7263   -5.7432    0.0000 C   0  0  0  0  0  0  0  0  0  0  0  0
    3.7320    0.9010    0.0000 H   0  0  0  0  0  0  0  0  0  0  0  0
    4.9966    1.2559    0.0000 H   0  0  0  0  0  0  0  0  0  0  0  0
    4.1996    1.2559    0.0000 H   0  0  0  0  0  0  0  0  0  0  0  0
    3.1215   -0.6113    0.0000 H   0  0  0  0  0  0  0  0  0  0  0  0
    3.5200   -1.3016    0.0000 H   0  0  0  0  0  0  0  0  0  0  0  0
    6.0747    0.1733    0.0000 H   0  0  0  0  0  0  0  0  0  0  0  0
    5.6762    0.8636    0.0000 H   0  0  0  0  0  0  0  0  0  0  0  0
    4.1996   -1.6940    0.0000 H   0  0  0  0  0  0  0  0  0  0  0  0
    4.9966   -1.6940    0.0000 H   0  0  0  0  0  0  0  0  0  0  0  0
    2.2554    0.8887    0.0000 H   0  0  0  0  0  0  0  0  0  0  0  0
    2.6540    0.1984    0.0000 H   0  0  0  0  0  0  0  0  0  0  0  0
    6.9407   -1.3267    0.0000 H   0  0  0  0  0  0  0  0  0  0  0  0
    6.5422   -0.6364    0.0000 H   0  0  0  0  0  0  0  0  0  0  0  0
    5.2016    2.8373    0.0000 H   0  0  0  0  0  0  0  0  0  0  0  0
    6.0132    3.0098    0.0000 H   0  0  0  0  0  0  0  0  0  0  0  0
    6.2472    5.2356    0.0000 H   0  0  0  0  0  0  0  0  0  0  0  0
    5.4892    5.5731    0.0000 H   0  0  0  0  0  0  0  0  0  0  0  0
    6.5956    3.6566    0.0000 H   0  0  0  0  0  0  0  0  0  0  0  0
    6.6823    4.4818    0.0000 H   0  0  0  0  0  0  0  0  0  0  0  0
    4.2690    1.9710    0.0000 H   0  0  0  0  0  0  0  0  0  0  0  0
    5.7196   -2.1113    0.0000 H   0  0  0  0  0  0  0  0  0  0  0  0
    6.1181   -2.8016    0.0000 H   0  0  0  0  0  0  0  0  0  0  0  0
    1.4631    1.9710    0.0000 H   0  0  0  0  0  0  0  0  0  0  0  0
    2.8660    4.4010    0.0000 H   0  0  0  0  0  0  0  0  0  0  0  0
    1.4631    3.5910    0.0000 H   0  0  0  0  0  0  0  0  0  0  0  0
    5.7932   -3.9090    0.0000 H   0  0  0  0  0  0  0  0  0  0  0  0
    8.9490   -3.0644    0.0000 H   0  0  0  0  0  0  0  0  0  0  0  0
    5.7932   -5.5290    0.0000 H   0  0  0  0  0  0  0  0  0  0  0  0
    7.1962   -6.3390    0.0000 H   0  0  0  0  0  0  0  0  0  0  0  0
   10.3979   -3.8861    0.0000 H   0  0  0  0  0  0  0  0  0  0  0  0
   10.4142   -6.2789    0.0000 H   0  0  0  0  0  0  0  0  0  0  0  0
   11.2620   -6.0552    0.0000 H   0  0  0  0  0  0  0  0  0  0  0  0
   11.0383   -5.2074    0.0000 H   0  0  0  0  0  0  0  0  0  0  0  0
  1  3  2  0  0  0  0
  1  4  2  0  0  0  0
  1  6  1  0  0  0  0
  1 17  1  0  0  0  0
  2 21  1  0  0  0  0
  2 25  1  0  0  0  0
  5 11  1  0  0  0  0
  5 12  1  0  0  0  0
  5 14  1  0  0  0  0
  6 16  1  0  0  0  0
  6 19  1  0  0  0  0
  7 28  1  0  0  0  0
  7 33  2  0  0  0  0
  8  9  1  0  0  0  0
  8 10  1  0  0  0  0
  8 13  1  0  0  0  0
  8 35  1  0  0  0  0
  9 11  1  0  0  0  0
  9 36  1  0  0  0  0
  9 37  1  0  0  0  0
 10 12  1  0  0  0  0
 10 38  1  0  0  0  0
 10 39  1  0  0  0  0
 11 40  1  0  0  0  0
 11 41  1  0  0  0  0
 12 42  1  0  0  0  0
 12 43  1  0  0  0  0
 13 15  1  0  0  0  0
 13 44  1  0  0  0  0
 13 45  1  0  0  0  0
 14 21  1  0  0  0  0
 14 46  1  0  0  0  0
 14 47  1  0  0  0  0
 15 20  2  0  0  0  0
 15 22  1  0  0  0  0
 16 18  1  0  0  0  0
 16 48  1  0  0  0  0
 16 49  1  0  0  0  0
 17 18  1  0  0  0  0
 17 50  1  0  0  0  0
 17 51  1  0  0  0  0
 18 52  1  0  0  0  0
 18 53  1  0  0  0  0
 19 20  1  0  0  0  0
 19 23  2  0  0  0  0
 20 54  1  0  0  0  0
 21 55  1  0  0  0  0
 21 56  1  0  0  0  0
 22 24  2  0  0  0  0
 22 57  1  0  0  0  0
 23 24  1  0  0  0  0
 23 58  1  0  0  0  0
 24 59  1  0  0  0  0
 25 26  1  0  0  0  0
 25 27  2  0  0  0  0
 26 28  2  0  0  0  0
 26 29  1  0  0  0  0
 27 30  1  0  0  0  0
 27 60  1  0  0  0  0
 28 31  1  0  0  0  0
 29 32  2  0  0  0  0
 29 61  1  0  0  0  0
 30 31  2  0  0  0  0
 30 62  1  0  0  0  0
 31 63  1  0  0  0  0
 32 33  1  0  0  0  0
 32 64  1  0  0  0  0
 33 34  1  0  0  0  0
 34 65  1  0  0  0  0
 34 66  1  0  0  0  0
 34 67  1  0  0  0  0
M  END
> <PUBCHEM_COMPOUND_CID>
24865727

> <PUBCHEM_COMPOUND_CANONICALIZED>
1

> <PUBCHEM_CACTVS_COMPLEXITY>
749

> <PUBCHEM_CACTVS_HBOND_ACCEPTOR>
6

> <PUBCHEM_CACTVS_HBOND_DONOR>
0

> <PUBCHEM_CACTVS_ROTATABLE_BOND>
7

> <PUBCHEM_CACTVS_SUBSKEYS>
AAADcfB7MABAAAAAAAAAAAAAAAAAAWAAAAA8eIEAAAAAAACx9AAAHgQAQAAADQzl3gayxvMIFAKgAyRiRHDCiCAhIiAImCA+bJgOJuLEsZuHOCjmwBnY6AeQ0OMOAAAAQgAKAAAAAACEABQAAAAAAAAAAA==

> <PUBCHEM_IUPAC_OPENEYE_NAME>
2-[3-[[1-[2-[(2-methyl-5-quinolyl)oxy]ethyl]-4-piperidyl]methyl]phenyl]-1,2-thiazolidine 1,1-dioxide

> <PUBCHEM_IUPAC_CAS_NAME>
2-[3-[[1-[2-[(2-methyl-5-quinolinyl)oxy]ethyl]-4-piperidinyl]methyl]phenyl]-1,2-thiazolidine 1,1-dioxide

> <PUBCHEM_IUPAC_NAME_MARKUP>
2-[3-[[1-[2-(2-methylquinolin-5-yl)oxyethyl]piperidin-4-yl]methyl]phenyl]-1,2-thiazolidine 1,1-dioxide

> <PUBCHEM_IUPAC_NAME>
2-[3-[[1-[2-(2-methylquinolin-5-yl)oxyethyl]piperidin-4-yl]methyl]phenyl]-1,2-thiazolidine 1,1-dioxide

> <PUBCHEM_IUPAC_SYSTEMATIC_NAME>
2-[3-[[1-[2-(2-methylquinolin-5-yl)oxyethyl]piperidin-4-yl]methyl]phenyl]-1,2-thiazolidine 1,1-dioxide

> <PUBCHEM_IUPAC_TRADITIONAL_NAME>
2-[3-[[1-[2-[(2-methyl-5-quinolyl)oxy]ethyl]-4-piperidyl]methyl]phenyl]-1,2-thiazolidine 1,1-dioxide

> <PUBCHEM_IUPAC_INCHI>
InChI=1S/C27H33N3O3S/c1-21-9-10-25-26(28-21)7-3-8-27(25)33-17-16-29-14-11-22(12-15-29)19-23-5-2-6-24(20-23)30-13-4-18-34(30,31)32/h2-3,5-10,20,22H,4,11-19H2,1H3

> <PUBCHEM_IUPAC_INCHIKEY>
WQRVLZPCOXHNAI-UHFFFAOYSA-N

> <PUBCHEM_XLOGP3_AA>
4.6

> <PUBCHEM_EXACT_MASS>
479.22426310

> <PUBCHEM_MOLECULAR_FORMULA>
C27H33N3O3S

> <PUBCHEM_MOLECULAR_WEIGHT>
479.6

> <PUBCHEM_OPENEYE_CAN_SMILES>
CC1=NC2=C(C=C1)C(=CC=C2)OCCN3CCC(CC3)CC4=CC(=CC=C4)N5CCCS5(=O)=O

> <PUBCHEM_OPENEYE_ISO_SMILES>
CC1=NC2=C(C=C1)C(=CC=C2)OCCN3CCC(CC3)CC4=CC(=CC=C4)N5CCCS5(=O)=O

> <PUBCHEM_CACTVS_TPSA>
71.1

> <PUBCHEM_MONOISOTOPIC_WEIGHT>
479.22426310

> <PUBCHEM_TOTAL_CHARGE>
0

> <PUBCHEM_HEAVY_ATOM_COUNT>
34

> <PUBCHEM_ATOM_DEF_STEREO_COUNT>
0

> <PUBCHEM_ATOM_UDEF_STEREO_COUNT>
0

> <PUBCHEM_BOND_DEF_STEREO_COUNT>
0

> <PUBCHEM_BOND_UDEF_STEREO_COUNT>
0

> <PUBCHEM_ISOTOPIC_ATOM_COUNT>
0

> <PUBCHEM_COMPONENT_COUNT>
1

> <PUBCHEM_CACTVS_TAUTO_COUNT>
-1

> <PUBCHEM_COORDINATE_TYPE>
1
5
255

> <PUBCHEM_BONDANNOTATIONS>
15  20  8
15  22  8
19  20  8
19  23  8
22  24  8
23  24  8
25  26  8
25  27  8
26  28  8
26  29  8
27  30  8
28  31  8
29  32  8
30  31  8
32  33  8
7  28  8
7  33  8

$$$$
