155541871
  -OEChem-09292322412D

 64 67  0     0  0  0  0  0  0999 V2000
    8.2814   14.6728    0.0000 Cl  0  0  0  0  0  0  0  0  0  0  0  0
    0.0000    7.0851    0.0000 Cl  0  0  0  0  0  0  0  0  0  0  0  0
    4.3158    4.4416    0.0000 O   0  0  0  0  0  0  0  0  0  0  0  0
    6.8513    9.5782    0.0000 N   0  0  0  0  0  0  0  0  0  0  0  0
    7.9924   11.2208    0.0000 N   0  0  0  0  0  0  0  0  0  0  0  0
    5.8472    3.5789    0.0000 N   0  0  0  0  0  0  0  0  0  0  0  0
    7.8478    9.4948    0.0000 C   0  0  0  0  0  0  0  0  0  0  0  0
    6.4253   10.4830    0.0000 C   0  0  0  0  0  0  0  0  0  0  0  0
    6.2808    8.7570    0.0000 C   0  0  0  0  0  0  0  0  0  0  0  0
    8.4184   10.3161    0.0000 C   0  0  0  0  0  0  0  0  0  0  0  0
    6.9959   11.3043    0.0000 C   0  0  0  0  0  0  0  0  0  0  0  0
    6.7068    7.8522    0.0000 C   0  0  0  0  0  0  0  0  0  0  0  0
    6.1363    7.0310    0.0000 C   0  0  0  0  0  0  0  0  0  0  0  0
    6.5622    6.1262    0.0000 C   0  0  0  0  0  0  0  0  0  0  0  0
    5.9917    5.3050    0.0000 C   0  0  0  0  0  0  0  0  0  0  0  0
    6.4177    4.4002    0.0000 C   0  0  0  0  0  0  0  0  0  0  0  0
    8.5629   12.0421    0.0000 C   0  0  0  0  0  0  0  0  0  0  0  0
    6.2123    2.6546    0.0000 C   0  0  0  0  0  0  0  0  0  0  0  0
    5.3463    2.1546    0.0000 C   0  0  0  0  0  0  0  0  0  0  0  0
    4.4523    2.6893    0.0000 C   0  0  0  0  0  0  0  0  0  0  0  0
    4.8536    3.5985    0.0000 C   0  0  0  0  0  0  0  0  0  0  0  0
    5.3463    1.1546    0.0000 C   0  0  0  0  0  0  0  0  0  0  0  0
    8.1369   12.9468    0.0000 C   0  0  0  0  0  0  0  0  0  0  0  0
    9.5594   11.9586    0.0000 C   0  0  0  0  0  0  0  0  0  0  0  0
    7.0783    2.1546    0.0000 C   0  0  0  0  0  0  0  0  0  0  0  0
    3.5463    2.1754    0.0000 C   0  0  0  0  0  0  0  0  0  0  0  0
    6.2123    0.6546    0.0000 C   0  0  0  0  0  0  0  0  0  0  0  0
    4.4523    0.6200    0.0000 C   0  0  0  0  0  0  0  0  0  0  0  0
    7.0783    1.1546    0.0000 C   0  0  0  0  0  0  0  0  0  0  0  0
    3.5463    1.1338    0.0000 C   0  0  0  0  0  0  0  0  0  0  0  0
    8.7074   13.7681    0.0000 C   0  0  0  0  0  0  0  0  0  0  0  0
   10.1299   12.7799    0.0000 C   0  0  0  0  0  0  0  0  0  0  0  0
    9.7040   13.6846    0.0000 C   0  0  0  0  0  0  0  0  0  0  0  0
    7.6896    8.8953    0.0000 H   0  0  0  0  0  0  0  0  0  0  0  0
    8.4107    9.2349    0.0000 H   0  0  0  0  0  0  0  0  0  0  0  0
    5.9853   10.9197    0.0000 H   0  0  0  0  0  0  0  0  0  0  0  0
    5.9188   10.1255    0.0000 H   0  0  0  0  0  0  0  0  0  0  0  0
    5.8408    9.1937    0.0000 H   0  0  0  0  0  0  0  0  0  0  0  0
    5.7743    8.3995    0.0000 H   0  0  0  0  0  0  0  0  0  0  0  0
    8.8584    9.8793    0.0000 H   0  0  0  0  0  0  0  0  0  0  0  0
    8.9249   10.6736    0.0000 H   0  0  0  0  0  0  0  0  0  0  0  0
    7.1541   11.9037    0.0000 H   0  0  0  0  0  0  0  0  0  0  0  0
    6.4330   11.5642    0.0000 H   0  0  0  0  0  0  0  0  0  0  0  0
    7.1468    7.4155    0.0000 H   0  0  0  0  0  0  0  0  0  0  0  0
    7.2133    8.2097    0.0000 H   0  0  0  0  0  0  0  0  0  0  0  0
    5.6962    7.4677    0.0000 H   0  0  0  0  0  0  0  0  0  0  0  0
    5.6297    6.6734    0.0000 H   0  0  0  0  0  0  0  0  0  0  0  0
    7.0023    5.6895    0.0000 H   0  0  0  0  0  0  0  0  0  0  0  0
    7.0688    6.4837    0.0000 H   0  0  0  0  0  0  0  0  0  0  0  0
    5.5517    5.7417    0.0000 H   0  0  0  0  0  0  0  0  0  0  0  0
    5.4852    4.9474    0.0000 H   0  0  0  0  0  0  0  0  0  0  0  0
    6.8578    3.9634    0.0000 H   0  0  0  0  0  0  0  0  0  0  0  0
    6.9243    4.7577    0.0000 H   0  0  0  0  0  0  0  0  0  0  0  0
    7.5191   12.9986    0.0000 H   0  0  0  0  0  0  0  0  0  0  0  0
    9.8235   11.3977    0.0000 H   0  0  0  0  0  0  0  0  0  0  0  0
    7.6153    2.4646    0.0000 H   0  0  0  0  0  0  0  0  0  0  0  0
    3.0105    2.4875    0.0000 H   0  0  0  0  0  0  0  0  0  0  0  0
    6.2123    0.0346    0.0000 H   0  0  0  0  0  0  0  0  0  0  0  0
    4.4595    0.0000    0.0000 H   0  0  0  0  0  0  0  0  0  0  0  0
    7.6153    0.8446    0.0000 H   0  0  0  0  0  0  0  0  0  0  0  0
    3.0105    0.8217    0.0000 H   0  0  0  0  0  0  0  0  0  0  0  0
   10.7478   12.7282    0.0000 H   0  0  0  0  0  0  0  0  0  0  0  0
   10.0577   14.1938    0.0000 H   0  0  0  0  0  0  0  0  0  0  0  0
    1.0000    7.0851    0.0000 H   0  0  0  0  0  0  0  0  0  0  0  0
  1 31  1  0  0  0  0
  2 64  1  0  0  0  0
  3 21  2  0  0  0  0
  4  7  1  0  0  0  0
  4  8  1  0  0  0  0
  4  9  1  0  0  0  0
  5 10  1  0  0  0  0
  5 11  1  0  0  0  0
  5 17  1  0  0  0  0
  6 16  1  0  0  0  0
  6 18  1  0  0  0  0
  6 21  1  0  0  0  0
  7 10  1  0  0  0  0
  7 34  1  0  0  0  0
  7 35  1  0  0  0  0
  8 11  1  0  0  0  0
  8 36  1  0  0  0  0
  8 37  1  0  0  0  0
  9 12  1  0  0  0  0
  9 38  1  0  0  0  0
  9 39  1  0  0  0  0
 10 40  1  0  0  0  0
 10 41  1  0  0  0  0
 11 42  1  0  0  0  0
 11 43  1  0  0  0  0
 12 13  1  0  0  0  0
 12 44  1  0  0  0  0
 12 45  1  0  0  0  0
 13 14  1  0  0  0  0
 13 46  1  0  0  0  0
 13 47  1  0  0  0  0
 14 15  1  0  0  0  0
 14 48  1  0  0  0  0
 14 49  1  0  0  0  0
 15 16  1  0  0  0  0
 15 50  1  0  0  0  0
 15 51  1  0  0  0  0
 16 52  1  0  0  0  0
 16 53  1  0  0  0  0
 17 23  2  0  0  0  0
 17 24  1  0  0  0  0
 18 19  1  0  0  0  0
 18 25  2  0  0  0  0
 19 20  1  0  0  0  0
 19 22  2  0  0  0  0
 20 21  1  0  0  0  0
 20 26  2  0  0  0  0
 22 27  1  0  0  0  0
 22 28  1  0  0  0  0
 23 31  1  0  0  0  0
 23 54  1  0  0  0  0
 24 32  2  0  0  0  0
 24 55  1  0  0  0  0
 25 29  1  0  0  0  0
 25 56  1  0  0  0  0
 26 30  1  0  0  0  0
 26 57  1  0  0  0  0
 27 29  2  0  0  0  0
 27 58  1  0  0  0  0
 28 30  2  0  0  0  0
 28 59  1  0  0  0  0
 29 60  1  0  0  0  0
 30 61  1  0  0  0  0
 31 33  2  0  0  0  0
 32 33  1  0  0  0  0
 32 62  1  0  0  0  0
 33 63  1  0  0  0  0
M  END
> <PUBCHEM_COMPOUND_CID>
155541871

> <PUBCHEM_COMPOUND_CANONICALIZED>
1

> <PUBCHEM_CACTVS_COMPLEXITY>
622

> <PUBCHEM_CACTVS_HBOND_ACCEPTOR>
3

> <PUBCHEM_CACTVS_HBOND_DONOR>
1

> <PUBCHEM_CACTVS_ROTATABLE_BOND>
8

> <PUBCHEM_CACTVS_SUBSKEYS>
AAADceB7IAAGAAAAAAAAAAAAAAAAAWAAAAA8YMEAAAAAAFjBVAAAHgIAAAAADArBmCQwwMMAAACIAiVSUACCAAAlBwAIiAEIZsgIYDLBl5GUIQhghgDIyYcciMCOgAACQAISAAAAAASABCQAAAAAAAAAAA==

> <PUBCHEM_IUPAC_OPENEYE_NAME>
1-[6-[4-(3-chlorophenyl)piperazin-1-yl]hexyl]benzo[cd]indol-2-one;hydrochloride

> <PUBCHEM_IUPAC_CAS_NAME>
1-[6-[4-(3-chlorophenyl)-1-piperazinyl]hexyl]-2-benzo[cd]indolone;hydrochloride

> <PUBCHEM_IUPAC_NAME_MARKUP>
1-[6-[4-(3-chlorophenyl)piperazin-1-yl]hexyl]benzo[cd]indol-2-one;hydrochloride

> <PUBCHEM_IUPAC_NAME>
1-[6-[4-(3-chlorophenyl)piperazin-1-yl]hexyl]benzo[cd]indol-2-one;hydrochloride

> <PUBCHEM_IUPAC_SYSTEMATIC_NAME>
1-[6-[4-(3-chlorophenyl)piperazin-1-yl]hexyl]benzo[cd]indol-2-one;hydrochloride

> <PUBCHEM_IUPAC_TRADITIONAL_NAME>
1-[6-[4-(3-chlorophenyl)piperazino]hexyl]benzo[cd]indol-2-one;hydrochloride

> <PUBCHEM_IUPAC_INCHI>
InChI=1S/C27H30ClN3O.ClH/c28-22-10-7-11-23(20-22)30-18-16-29(17-19-30)14-3-1-2-4-15-31-25-13-6-9-21-8-5-12-24(26(21)25)27(31)32;/h5-13,20H,1-4,14-19H2;1H

> <PUBCHEM_IUPAC_INCHIKEY>
TZRWEZVVJHAAAP-UHFFFAOYSA-N

> <PUBCHEM_EXACT_MASS>
483.1844180

> <PUBCHEM_MOLECULAR_FORMULA>
C27H31Cl2N3O

> <PUBCHEM_MOLECULAR_WEIGHT>
484.5

> <PUBCHEM_OPENEYE_CAN_SMILES>
C1CN(CCN1CCCCCCN2C3=CC=CC4=C3C(=CC=C4)C2=O)C5=CC(=CC=C5)Cl.Cl

> <PUBCHEM_OPENEYE_ISO_SMILES>
C1CN(CCN1CCCCCCN2C3=CC=CC4=C3C(=CC=C4)C2=O)C5=CC(=CC=C5)Cl.Cl

> <PUBCHEM_CACTVS_TPSA>
26.8

> <PUBCHEM_MONOISOTOPIC_WEIGHT>
483.1844180

> <PUBCHEM_TOTAL_CHARGE>
0

> <PUBCHEM_HEAVY_ATOM_COUNT>
33

> <PUBCHEM_ATOM_DEF_STEREO_COUNT>
0

> <PUBCHEM_ATOM_UDEF_STEREO_COUNT>
0

> <PUBCHEM_BOND_DEF_STEREO_COUNT>
0

> <PUBCHEM_BOND_UDEF_STEREO_COUNT>
0

> <PUBCHEM_ISOTOPIC_ATOM_COUNT>
0

> <PUBCHEM_COMPONENT_COUNT>
2

> <PUBCHEM_CACTVS_TAUTO_COUNT>
-1

> <PUBCHEM_COORDINATE_TYPE>
1
5
255

> <PUBCHEM_BONDANNOTATIONS>
17  23  8
17  24  8
18  19  8
18  25  8
19  20  8
19  22  8
20  26  8
22  27  8
22  28  8
23  31  8
24  32  8
25  29  8
26  30  8
27  29  8
28  30  8
31  33  8
32  33  8

$$$$
