11625642
  -OEChem-09292322472D

 59 62  0     0  0  0  0  0  0999 V2000
   15.7619   -2.6651    0.0000 O   0  0  0  0  0  0  0  0  0  0  0  0
    4.6783    0.8603    0.0000 O   0  0  0  0  0  0  0  0  0  0  0  0
    6.7619    2.5311    0.0000 O   0  0  0  0  0  0  0  0  0  0  0  0
   10.7619   -0.9330    0.0000 N   0  0  0  0  0  0  0  0  0  0  0  0
   12.7619   -0.9330    0.0000 N   0  0  0  0  0  0  0  0  0  0  0  0
    6.7619    0.7990    0.0000 N   0  0  0  0  0  0  0  0  0  0  0  0
   11.2619   -1.7990    0.0000 C   0  0  0  0  0  0  0  0  0  0  0  0
   11.2619   -0.0670    0.0000 C   0  0  0  0  0  0  0  0  0  0  0  0
   12.2619   -1.7990    0.0000 C   0  0  0  0  0  0  0  0  0  0  0  0
   12.2619   -0.0670    0.0000 C   0  0  0  0  0  0  0  0  0  0  0  0
    9.7619   -0.9330    0.0000 C   0  0  0  0  0  0  0  0  0  0  0  0
    9.2619   -0.0670    0.0000 C   0  0  0  0  0  0  0  0  0  0  0  0
   13.7619   -0.9330    0.0000 C   0  0  0  0  0  0  0  0  0  0  0  0
    8.2619   -0.0670    0.0000 C   0  0  0  0  0  0  0  0  0  0  0  0
    7.7619    0.7990    0.0000 C   0  0  0  0  0  0  0  0  0  0  0  0
   14.2619   -1.7990    0.0000 C   0  0  0  0  0  0  0  0  0  0  0  0
   14.2619   -0.0670    0.0000 C   0  0  0  0  0  0  0  0  0  0  0  0
   15.2619   -1.7990    0.0000 C   0  0  0  0  0  0  0  0  0  0  0  0
   15.2619   -0.0670    0.0000 C   0  0  0  0  0  0  0  0  0  0  0  0
   15.7619   -0.9330    0.0000 C   0  0  0  0  0  0  0  0  0  0  0  0
    6.2619    1.6651    0.0000 C   0  0  0  0  0  0  0  0  0  0  0  0
    5.2619    1.6651    0.0000 C   0  0  0  0  0  0  0  0  0  0  0  0
    4.6783    2.4698    0.0000 C   0  0  0  0  0  0  0  0  0  0  0  0
    3.7320    2.1651    0.0000 C   0  0  0  0  0  0  0  0  0  0  0  0
    3.7320    1.1651    0.0000 C   0  0  0  0  0  0  0  0  0  0  0  0
   16.7619   -2.6651    0.0000 C   0  0  0  0  0  0  0  0  0  0  0  0
    2.8660    2.6651    0.0000 C   0  0  0  0  0  0  0  0  0  0  0  0
    2.8660    0.6651    0.0000 C   0  0  0  0  0  0  0  0  0  0  0  0
    2.0000    2.1651    0.0000 C   0  0  0  0  0  0  0  0  0  0  0  0
    2.0000    1.1651    0.0000 C   0  0  0  0  0  0  0  0  0  0  0  0
   10.6793   -2.0111    0.0000 H   0  0  0  0  0  0  0  0  0  0  0  0
   11.3695   -2.4096    0.0000 H   0  0  0  0  0  0  0  0  0  0  0  0
   11.3695    0.5436    0.0000 H   0  0  0  0  0  0  0  0  0  0  0  0
   10.6793    0.1451    0.0000 H   0  0  0  0  0  0  0  0  0  0  0  0
   12.1542   -2.4096    0.0000 H   0  0  0  0  0  0  0  0  0  0  0  0
   12.8445   -2.0111    0.0000 H   0  0  0  0  0  0  0  0  0  0  0  0
   12.8445    0.1451    0.0000 H   0  0  0  0  0  0  0  0  0  0  0  0
   12.1542    0.5436    0.0000 H   0  0  0  0  0  0  0  0  0  0  0  0
    9.1793   -1.1451    0.0000 H   0  0  0  0  0  0  0  0  0  0  0  0
    9.8695   -1.5436    0.0000 H   0  0  0  0  0  0  0  0  0  0  0  0
    9.8445    0.1451    0.0000 H   0  0  0  0  0  0  0  0  0  0  0  0
    9.1542    0.5436    0.0000 H   0  0  0  0  0  0  0  0  0  0  0  0
    7.6793   -0.2790    0.0000 H   0  0  0  0  0  0  0  0  0  0  0  0
    8.3695   -0.6776    0.0000 H   0  0  0  0  0  0  0  0  0  0  0  0
    8.3445    1.0111    0.0000 H   0  0  0  0  0  0  0  0  0  0  0  0
    7.6542    1.4096    0.0000 H   0  0  0  0  0  0  0  0  0  0  0  0
   13.9519   -2.3360    0.0000 H   0  0  0  0  0  0  0  0  0  0  0  0
   13.9519    0.4699    0.0000 H   0  0  0  0  0  0  0  0  0  0  0  0
    6.4519    0.2621    0.0000 H   0  0  0  0  0  0  0  0  0  0  0  0
   15.5719    0.4699    0.0000 H   0  0  0  0  0  0  0  0  0  0  0  0
   16.3819   -0.9330    0.0000 H   0  0  0  0  0  0  0  0  0  0  0  0
    4.8709    3.0591    0.0000 H   0  0  0  0  0  0  0  0  0  0  0  0
   16.7619   -3.2851    0.0000 H   0  0  0  0  0  0  0  0  0  0  0  0
   17.3819   -2.6651    0.0000 H   0  0  0  0  0  0  0  0  0  0  0  0
   16.7619   -2.0451    0.0000 H   0  0  0  0  0  0  0  0  0  0  0  0
    2.8660    3.2851    0.0000 H   0  0  0  0  0  0  0  0  0  0  0  0
    2.8660    0.0451    0.0000 H   0  0  0  0  0  0  0  0  0  0  0  0
    1.4631    2.4751    0.0000 H   0  0  0  0  0  0  0  0  0  0  0  0
    1.4631    0.8551    0.0000 H   0  0  0  0  0  0  0  0  0  0  0  0
  1 18  1  0  0  0  0
  1 26  1  0  0  0  0
  2 22  1  0  0  0  0
  2 25  1  0  0  0  0
  3 21  2  0  0  0  0
  4  7  1  0  0  0  0
  4  8  1  0  0  0  0
  4 11  1  0  0  0  0
  5  9  1  0  0  0  0
  5 10  1  0  0  0  0
  5 13  1  0  0  0  0
  6 15  1  0  0  0  0
  6 21  1  0  0  0  0
  6 49  1  0  0  0  0
  7  9  1  0  0  0  0
  7 31  1  0  0  0  0
  7 32  1  0  0  0  0
  8 10  1  0  0  0  0
  8 33  1  0  0  0  0
  8 34  1  0  0  0  0
  9 35  1  0  0  0  0
  9 36  1  0  0  0  0
 10 37  1  0  0  0  0
 10 38  1  0  0  0  0
 11 12  1  0  0  0  0
 11 39  1  0  0  0  0
 11 40  1  0  0  0  0
 12 14  1  0  0  0  0
 12 41  1  0  0  0  0
 12 42  1  0  0  0  0
 13 16  2  0  0  0  0
 13 17  1  0  0  0  0
 14 15  1  0  0  0  0
 14 43  1  0  0  0  0
 14 44  1  0  0  0  0
 15 45  1  0  0  0  0
 15 46  1  0  0  0  0
 16 18  1  0  0  0  0
 16 47  1  0  0  0  0
 17 19  2  0  0  0  0
 17 48  1  0  0  0  0
 18 20  2  0  0  0  0
 19 20  1  0  0  0  0
 19 50  1  0  0  0  0
 20 51  1  0  0  0  0
 21 22  1  0  0  0  0
 22 23  2  0  0  0  0
 23 24  1  0  0  0  0
 23 52  1  0  0  0  0
 24 25  1  0  0  0  0
 24 27  2  0  0  0  0
 25 28  2  0  0  0  0
 26 53  1  0  0  0  0
 26 54  1  0  0  0  0
 26 55  1  0  0  0  0
 27 29  1  0  0  0  0
 27 56  1  0  0  0  0
 28 30  1  0  0  0  0
 28 57  1  0  0  0  0
 29 30  2  0  0  0  0
 29 58  1  0  0  0  0
 30 59  1  0  0  0  0
M  END
> <PUBCHEM_COMPOUND_CID>
11625642

> <PUBCHEM_COMPOUND_CANONICALIZED>
1

> <PUBCHEM_CACTVS_COMPLEXITY>
538

> <PUBCHEM_CACTVS_HBOND_ACCEPTOR>
5

> <PUBCHEM_CACTVS_HBOND_DONOR>
1

> <PUBCHEM_CACTVS_ROTATABLE_BOND>
8

> <PUBCHEM_CACTVS_SUBSKEYS>
AAADceB7MAAAAAAAAAAAAAAAAAAAASAAAAA8YIAAAAAAAEgB9AAAHgAQAAAADAzBmAYyxsPABECIAqVSUAKCCAAlIgAIiIHObMgOZjLEtb+XOSjm1hnY6YeY36PuAAAAAgAIAAAAAAAEABAAAAAAAAAAAA==

> <PUBCHEM_IUPAC_OPENEYE_NAME>
N-[4-[4-(3-methoxyphenyl)piperazin-1-yl]butyl]benzofuran-2-carboxamide

> <PUBCHEM_IUPAC_CAS_NAME>
N-[4-[4-(3-methoxyphenyl)-1-piperazinyl]butyl]-2-benzofurancarboxamide

> <PUBCHEM_IUPAC_NAME_MARKUP>
<I>N</I>-[4-[4-(3-methoxyphenyl)piperazin-1-yl]butyl]-1-benzofuran-2-carboxamide

> <PUBCHEM_IUPAC_NAME>
N-[4-[4-(3-methoxyphenyl)piperazin-1-yl]butyl]-1-benzofuran-2-carboxamide

> <PUBCHEM_IUPAC_SYSTEMATIC_NAME>
N-[4-[4-(3-methoxyphenyl)piperazin-1-yl]butyl]-1-benzofuran-2-carboxamide

> <PUBCHEM_IUPAC_TRADITIONAL_NAME>
N-[4-[4-(3-methoxyphenyl)piperazino]butyl]coumarilamide

> <PUBCHEM_IUPAC_INCHI>
InChI=1S/C24H29N3O3/c1-29-21-9-6-8-20(18-21)27-15-13-26(14-16-27)12-5-4-11-25-24(28)23-17-19-7-2-3-10-22(19)30-23/h2-3,6-10,17-18H,4-5,11-16H2,1H3,(H,25,28)

> <PUBCHEM_IUPAC_INCHIKEY>
MBKIFLFRYIEMRC-UHFFFAOYSA-N

> <PUBCHEM_XLOGP3_AA>
4.3

> <PUBCHEM_EXACT_MASS>
407.22089180

> <PUBCHEM_MOLECULAR_FORMULA>
C24H29N3O3

> <PUBCHEM_MOLECULAR_WEIGHT>
407.5

> <PUBCHEM_OPENEYE_CAN_SMILES>
COC1=CC=CC(=C1)N2CCN(CC2)CCCCNC(=O)C3=CC4=CC=CC=C4O3

> <PUBCHEM_OPENEYE_ISO_SMILES>
COC1=CC=CC(=C1)N2CCN(CC2)CCCCNC(=O)C3=CC4=CC=CC=C4O3

> <PUBCHEM_CACTVS_TPSA>
58

> <PUBCHEM_MONOISOTOPIC_WEIGHT>
407.22089180

> <PUBCHEM_TOTAL_CHARGE>
0

> <PUBCHEM_HEAVY_ATOM_COUNT>
30

> <PUBCHEM_ATOM_DEF_STEREO_COUNT>
0

> <PUBCHEM_ATOM_UDEF_STEREO_COUNT>
0

> <PUBCHEM_BOND_DEF_STEREO_COUNT>
0

> <PUBCHEM_BOND_UDEF_STEREO_COUNT>
0

> <PUBCHEM_ISOTOPIC_ATOM_COUNT>
0

> <PUBCHEM_COMPONENT_COUNT>
1

> <PUBCHEM_CACTVS_TAUTO_COUNT>
-1

> <PUBCHEM_COORDINATE_TYPE>
1
5
255

> <PUBCHEM_BONDANNOTATIONS>
13  16  8
13  17  8
16  18  8
17  19  8
18  20  8
19  20  8
2  22  8
2  25  8
22  23  8
23  24  8
24  25  8
24  27  8
25  28  8
27  29  8
28  30  8
29  30  8

$$$$
