166629136
  -OEChem-09292322442D

 57 61  0     0  0  0  0  0  0999 V2000
    6.9356   -1.2950    0.0000 O   0  0  0  0  0  0  0  0  0  0  0  0
    9.8074    2.5656    0.0000 O   0  0  0  0  0  0  0  0  0  0  0  0
    3.6452   -2.3782    0.0000 N   0  0  0  0  0  0  0  0  0  0  0  0
   10.9923   -0.7580    0.0000 N   0  0  0  0  0  0  0  0  0  0  0  0
   12.3347    0.4414    0.0000 N   0  0  0  0  0  0  0  0  0  0  0  0
   12.6791   -1.2950    0.0000 N   0  0  0  0  0  0  0  0  0  0  0  0
    2.6663   -2.1740    0.0000 C   0  0  0  0  0  0  0  0  0  0  0  0
    3.9579   -3.3280    0.0000 C   0  0  0  0  0  0  0  0  0  0  0  0
    2.0000   -2.9198    0.0000 C   0  0  0  0  0  0  0  0  0  0  0  0
    3.2916   -4.0737    0.0000 C   0  0  0  0  0  0  0  0  0  0  0  0
    2.3127   -3.8696    0.0000 C   0  0  0  0  0  0  0  0  0  0  0  0
    4.3115   -1.6324    0.0000 C   0  0  0  0  0  0  0  0  0  0  0  0
    5.2904   -1.8366    0.0000 C   0  0  0  0  0  0  0  0  0  0  0  0
    5.9567   -1.0909    0.0000 C   0  0  0  0  0  0  0  0  0  0  0  0
    9.3074    0.0267    0.0000 C   0  0  0  0  0  0  0  0  0  0  0  0
    8.9983    0.9778    0.0000 C   0  0  0  0  0  0  0  0  0  0  0  0
    7.6019   -0.5493    0.0000 C   0  0  0  0  0  0  0  0  0  0  0  0
   10.3073    0.0267    0.0000 C   0  0  0  0  0  0  0  0  0  0  0  0
   10.6164    0.9778    0.0000 C   0  0  0  0  0  0  0  0  0  0  0  0
    8.6224   -0.7580    0.0000 C   0  0  0  0  0  0  0  0  0  0  0  0
    9.8074    1.5656    0.0000 C   0  0  0  0  0  0  0  0  0  0  0  0
    7.9829    1.2100    0.0000 C   0  0  0  0  0  0  0  0  0  0  0  0
    7.2800    0.4414    0.0000 C   0  0  0  0  0  0  0  0  0  0  0  0
   11.6318    1.2100    0.0000 C   0  0  0  0  0  0  0  0  0  0  0  0
   11.9298    2.1646    0.0000 C   0  0  0  0  0  0  0  0  0  0  0  0
   12.0128   -0.5493    0.0000 C   0  0  0  0  0  0  0  0  0  0  0  0
   11.2521    2.9000    0.0000 C   0  0  0  0  0  0  0  0  0  0  0  0
   12.9055    2.3838    0.0000 C   0  0  0  0  0  0  0  0  0  0  0  0
   11.5501    3.8545    0.0000 C   0  0  0  0  0  0  0  0  0  0  0  0
   13.2034    3.3384    0.0000 C   0  0  0  0  0  0  0  0  0  0  0  0
   12.5258    4.0737    0.0000 C   0  0  0  0  0  0  0  0  0  0  0  0
    2.8963   -1.5983    0.0000 H   0  0  0  0  0  0  0  0  0  0  0  0
    2.1392   -1.8475    0.0000 H   0  0  0  0  0  0  0  0  0  0  0  0
    4.3415   -3.8151    0.0000 H   0  0  0  0  0  0  0  0  0  0  0  0
    4.5042   -3.0348    0.0000 H   0  0  0  0  0  0  0  0  0  0  0  0
    1.6164   -2.4327    0.0000 H   0  0  0  0  0  0  0  0  0  0  0  0
    1.4537   -3.2129    0.0000 H   0  0  0  0  0  0  0  0  0  0  0  0
    3.0616   -4.6495    0.0000 H   0  0  0  0  0  0  0  0  0  0  0  0
    3.8187   -4.4003    0.0000 H   0  0  0  0  0  0  0  0  0  0  0  0
    1.6990   -3.9583    0.0000 H   0  0  0  0  0  0  0  0  0  0  0  0
    2.2934   -4.4893    0.0000 H   0  0  0  0  0  0  0  0  0  0  0  0
    4.5415   -1.0567    0.0000 H   0  0  0  0  0  0  0  0  0  0  0  0
    3.7844   -1.3059    0.0000 H   0  0  0  0  0  0  0  0  0  0  0  0
    5.0604   -2.4123    0.0000 H   0  0  0  0  0  0  0  0  0  0  0  0
    5.8175   -2.1631    0.0000 H   0  0  0  0  0  0  0  0  0  0  0  0
    6.1867   -0.5151    0.0000 H   0  0  0  0  0  0  0  0  0  0  0  0
    5.4296   -0.7643    0.0000 H   0  0  0  0  0  0  0  0  0  0  0  0
    8.8208   -1.3454    0.0000 H   0  0  0  0  0  0  0  0  0  0  0  0
    7.7982    1.8019    0.0000 H   0  0  0  0  0  0  0  0  0  0  0  0
    6.6740    0.5726    0.0000 H   0  0  0  0  0  0  0  0  0  0  0  0
   10.6472    2.7641    0.0000 H   0  0  0  0  0  0  0  0  0  0  0  0
   13.3256    1.9279    0.0000 H   0  0  0  0  0  0  0  0  0  0  0  0
   11.1299    4.3105    0.0000 H   0  0  0  0  0  0  0  0  0  0  0  0
   13.8084    3.4743    0.0000 H   0  0  0  0  0  0  0  0  0  0  0  0
   12.4852   -1.8839    0.0000 H   0  0  0  0  0  0  0  0  0  0  0  0
   13.2860   -1.1684    0.0000 H   0  0  0  0  0  0  0  0  0  0  0  0
   12.7105    4.6656    0.0000 H   0  0  0  0  0  0  0  0  0  0  0  0
  1 14  1  0  0  0  0
  1 17  1  0  0  0  0
  2 21  2  0  0  0  0
  3  7  1  0  0  0  0
  3  8  1  0  0  0  0
  3 12  1  0  0  0  0
  4 18  2  0  0  0  0
  4 26  1  0  0  0  0
  5 24  1  0  0  0  0
  5 26  2  0  0  0  0
  6 26  1  0  0  0  0
  6 55  1  0  0  0  0
  6 56  1  0  0  0  0
  7  9  1  0  0  0  0
  7 32  1  0  0  0  0
  7 33  1  0  0  0  0
  8 10  1  0  0  0  0
  8 34  1  0  0  0  0
  8 35  1  0  0  0  0
  9 11  1  0  0  0  0
  9 36  1  0  0  0  0
  9 37  1  0  0  0  0
 10 11  1  0  0  0  0
 10 38  1  0  0  0  0
 10 39  1  0  0  0  0
 11 40  1  0  0  0  0
 11 41  1  0  0  0  0
 12 13  1  0  0  0  0
 12 42  1  0  0  0  0
 12 43  1  0  0  0  0
 13 14  1  0  0  0  0
 13 44  1  0  0  0  0
 13 45  1  0  0  0  0
 14 46  1  0  0  0  0
 14 47  1  0  0  0  0
 15 16  2  0  0  0  0
 15 18  1  0  0  0  0
 15 20  1  0  0  0  0
 16 21  1  0  0  0  0
 16 22  1  0  0  0  0
 17 20  2  0  0  0  0
 17 23  1  0  0  0  0
 18 19  1  0  0  0  0
 19 21  1  0  0  0  0
 19 24  2  0  0  0  0
 20 48  1  0  0  0  0
 22 23  2  0  0  0  0
 22 49  1  0  0  0  0
 23 50  1  0  0  0  0
 24 25  1  0  0  0  0
 25 27  2  0  0  0  0
 25 28  1  0  0  0  0
 27 29  1  0  0  0  0
 27 51  1  0  0  0  0
 28 30  2  0  0  0  0
 28 52  1  0  0  0  0
 29 31  2  0  0  0  0
 29 53  1  0  0  0  0
 30 31  1  0  0  0  0
 30 54  1  0  0  0  0
 31 57  1  0  0  0  0
M  END
> <PUBCHEM_COMPOUND_CID>
166629136

> <PUBCHEM_COMPOUND_CANONICALIZED>
1

> <PUBCHEM_CACTVS_COMPLEXITY>
604

> <PUBCHEM_CACTVS_HBOND_ACCEPTOR>
6

> <PUBCHEM_CACTVS_HBOND_DONOR>
1

> <PUBCHEM_CACTVS_ROTATABLE_BOND>
6

> <PUBCHEM_CACTVS_SUBSKEYS>
AAADceB7sAAAAAAAAAAAAAAAAAAAAYAAAAA8eIEAAAAAAHgB0AAAHgAQAAAADAzhngYxlpdIFACoA6RyZACCiCklIKAJmCEuTNiMLrrE/duGPajuwBPI6ee8zPDOoAABAAAQAABAAAIAACAAASAACQAAAA==

> <PUBCHEM_IUPAC_OPENEYE_NAME>
2-amino-4-phenyl-8-[3-(1-piperidyl)propoxy]indeno[1,2-d]pyrimidin-5-one

> <PUBCHEM_IUPAC_CAS_NAME>
2-amino-4-phenyl-8-[3-(1-piperidinyl)propoxy]-5-indeno[1,2-d]pyrimidinone

> <PUBCHEM_IUPAC_NAME_MARKUP>
2-amino-4-phenyl-8-(3-piperidin-1-ylpropoxy)indeno[1,2-d]pyrimidin-5-one

> <PUBCHEM_IUPAC_NAME>
2-amino-4-phenyl-8-(3-piperidin-1-ylpropoxy)indeno[1,2-d]pyrimidin-5-one

> <PUBCHEM_IUPAC_SYSTEMATIC_NAME>
2-azanyl-4-phenyl-8-(3-piperidin-1-ylpropoxy)indeno[1,2-d]pyrimidin-5-one

> <PUBCHEM_IUPAC_TRADITIONAL_NAME>
2-amino-4-phenyl-8-(3-piperidinopropoxy)indeno[1,2-d]pyrimidin-5-one

> <PUBCHEM_IUPAC_INCHI>
InChI=1S/C25H26N4O2/c26-25-27-22(17-8-3-1-4-9-17)21-23(28-25)20-16-18(10-11-19(20)24(21)30)31-15-7-14-29-12-5-2-6-13-29/h1,3-4,8-11,16H,2,5-7,12-15H2,(H2,26,27,28)

> <PUBCHEM_IUPAC_INCHIKEY>
FDGXVDUYFWJNRM-UHFFFAOYSA-N

> <PUBCHEM_XLOGP3_AA>
3.9

> <PUBCHEM_EXACT_MASS>
414.20557608

> <PUBCHEM_MOLECULAR_FORMULA>
C25H26N4O2

> <PUBCHEM_MOLECULAR_WEIGHT>
414.5

> <PUBCHEM_OPENEYE_CAN_SMILES>
C1CCN(CC1)CCCOC2=CC3=C(C=C2)C(=O)C4=C(N=C(N=C34)N)C5=CC=CC=C5

> <PUBCHEM_OPENEYE_ISO_SMILES>
C1CCN(CC1)CCCOC2=CC3=C(C=C2)C(=O)C4=C(N=C(N=C34)N)C5=CC=CC=C5

> <PUBCHEM_CACTVS_TPSA>
81.3

> <PUBCHEM_MONOISOTOPIC_WEIGHT>
414.20557608

> <PUBCHEM_TOTAL_CHARGE>
0

> <PUBCHEM_HEAVY_ATOM_COUNT>
31

> <PUBCHEM_ATOM_DEF_STEREO_COUNT>
0

> <PUBCHEM_ATOM_UDEF_STEREO_COUNT>
0

> <PUBCHEM_BOND_DEF_STEREO_COUNT>
0

> <PUBCHEM_BOND_UDEF_STEREO_COUNT>
0

> <PUBCHEM_ISOTOPIC_ATOM_COUNT>
0

> <PUBCHEM_COMPONENT_COUNT>
1

> <PUBCHEM_CACTVS_TAUTO_COUNT>
-1

> <PUBCHEM_COORDINATE_TYPE>
1
5
255

> <PUBCHEM_BONDANNOTATIONS>
15  16  8
15  20  8
16  22  8
17  20  8
17  23  8
18  19  8
19  24  8
22  23  8
25  27  8
25  28  8
27  29  8
28  30  8
29  31  8
30  31  8
4  18  8
4  26  8
5  24  8
5  26  8

$$$$
