10824155
  -OEChem-09292322522D

 43 43  0     0  0  0  0  0  0999 V2000
    4.2690    1.6550    0.0000 N   0  0  0  0  0  0  0  0  0  0  0  0
    4.2690    0.6550    0.0000 C   0  0  0  0  0  0  0  0  0  0  0  0
    3.4030    0.1550    0.0000 C   0  0  0  0  0  0  0  0  0  0  0  0
    5.1350    0.1550    0.0000 C   0  0  0  0  0  0  0  0  0  0  0  0
    3.4030   -0.8450    0.0000 C   0  0  0  0  0  0  0  0  0  0  0  0
    5.1350   -0.8450    0.0000 C   0  0  0  0  0  0  0  0  0  0  0  0
    4.2690   -1.3450    0.0000 C   0  0  0  0  0  0  0  0  0  0  0  0
    5.1350    2.1550    0.0000 C   0  0  0  0  0  0  0  0  0  0  0  0
    3.4030    2.1550    0.0000 C   0  0  0  0  0  0  0  0  0  0  0  0
    5.1350    3.1550    0.0000 C   0  0  0  0  0  0  0  0  0  0  0  0
    3.4030    3.1550    0.0000 C   0  0  0  0  0  0  0  0  0  0  0  0
    4.2690   -2.3450    0.0000 C   0  0  0  0  0  0  0  0  0  0  0  0
    6.0010    3.6550    0.0000 C   0  0  0  0  0  0  0  0  0  0  0  0
    2.5369    3.6550    0.0000 C   0  0  0  0  0  0  0  0  0  0  0  0
    3.4030   -2.8450    0.0000 C   0  0  0  0  0  0  0  0  0  0  0  0
    5.1350   -2.8450    0.0000 C   0  0  0  0  0  0  0  0  0  0  0  0
    2.5369   -3.3450    0.0000 C   0  0  0  0  0  0  0  0  0  0  0  0
    6.0010   -3.3450    0.0000 C   0  0  0  0  0  0  0  0  0  0  0  0
    4.8059    0.9650    0.0000 H   0  0  0  0  0  0  0  0  0  0  0  0
    3.1909    0.7376    0.0000 H   0  0  0  0  0  0  0  0  0  0  0  0
    2.7924    0.0473    0.0000 H   0  0  0  0  0  0  0  0  0  0  0  0
    5.7456    0.0473    0.0000 H   0  0  0  0  0  0  0  0  0  0  0  0
    5.3471    0.7376    0.0000 H   0  0  0  0  0  0  0  0  0  0  0  0
    2.7924   -0.7373    0.0000 H   0  0  0  0  0  0  0  0  0  0  0  0
    3.1909   -1.4276    0.0000 H   0  0  0  0  0  0  0  0  0  0  0  0
    5.3471   -1.4276    0.0000 H   0  0  0  0  0  0  0  0  0  0  0  0
    5.7456   -0.7373    0.0000 H   0  0  0  0  0  0  0  0  0  0  0  0
    5.3471    1.5724    0.0000 H   0  0  0  0  0  0  0  0  0  0  0  0
    5.7456    2.2627    0.0000 H   0  0  0  0  0  0  0  0  0  0  0  0
    2.7924    2.2627    0.0000 H   0  0  0  0  0  0  0  0  0  0  0  0
    3.1909    1.5724    0.0000 H   0  0  0  0  0  0  0  0  0  0  0  0
    4.9230    3.7376    0.0000 H   0  0  0  0  0  0  0  0  0  0  0  0
    4.5244    3.0473    0.0000 H   0  0  0  0  0  0  0  0  0  0  0  0
    4.0135    3.0473    0.0000 H   0  0  0  0  0  0  0  0  0  0  0  0
    3.6150    3.7376    0.0000 H   0  0  0  0  0  0  0  0  0  0  0  0
    6.3110    3.1181    0.0000 H   0  0  0  0  0  0  0  0  0  0  0  0
    6.5380    3.9650    0.0000 H   0  0  0  0  0  0  0  0  0  0  0  0
    5.6910    4.1919    0.0000 H   0  0  0  0  0  0  0  0  0  0  0  0
    2.8469    4.1919    0.0000 H   0  0  0  0  0  0  0  0  0  0  0  0
    2.0000    3.9650    0.0000 H   0  0  0  0  0  0  0  0  0  0  0  0
    2.2269    3.1181    0.0000 H   0  0  0  0  0  0  0  0  0  0  0  0
    2.0000   -3.6550    0.0000 H   0  0  0  0  0  0  0  0  0  0  0  0
    6.5380   -3.6550    0.0000 H   0  0  0  0  0  0  0  0  0  0  0  0
  1  2  1  0  0  0  0
  1  8  1  0  0  0  0
  1  9  1  0  0  0  0
  2  3  1  0  0  0  0
  2  4  1  0  0  0  0
  2 19  1  0  0  0  0
  3  5  1  0  0  0  0
  3 20  1  0  0  0  0
  3 21  1  0  0  0  0
  4  6  1  0  0  0  0
  4 22  1  0  0  0  0
  4 23  1  0  0  0  0
  5  7  1  0  0  0  0
  5 24  1  0  0  0  0
  5 25  1  0  0  0  0
  6  7  1  0  0  0  0
  6 26  1  0  0  0  0
  6 27  1  0  0  0  0
  7 12  2  0  0  0  0
  8 10  1  0  0  0  0
  8 28  1  0  0  0  0
  8 29  1  0  0  0  0
  9 11  1  0  0  0  0
  9 30  1  0  0  0  0
  9 31  1  0  0  0  0
 10 13  1  0  0  0  0
 10 32  1  0  0  0  0
 10 33  1  0  0  0  0
 11 14  1  0  0  0  0
 11 34  1  0  0  0  0
 11 35  1  0  0  0  0
 12 15  1  0  0  0  0
 12 16  1  0  0  0  0
 13 36  1  0  0  0  0
 13 37  1  0  0  0  0
 13 38  1  0  0  0  0
 14 39  1  0  0  0  0
 14 40  1  0  0  0  0
 14 41  1  0  0  0  0
 15 17  3  0  0  0  0
 16 18  3  0  0  0  0
 17 42  1  0  0  0  0
 18 43  1  0  0  0  0
M  END
> <PUBCHEM_COMPOUND_CID>
10824155

> <PUBCHEM_COMPOUND_CANONICALIZED>
1

> <PUBCHEM_CACTVS_COMPLEXITY>
350

> <PUBCHEM_CACTVS_HBOND_ACCEPTOR>
1

> <PUBCHEM_CACTVS_HBOND_DONOR>
0

> <PUBCHEM_CACTVS_ROTATABLE_BOND>
7

> <PUBCHEM_CACTVS_SUBSKEYS>
AAADceB6AAAAAAAAAAAAAAAAAAAAAAAAAAAwAAAAAAAAAAAAAAAAHAAAAAAADCjBAAQCAAMAAADAGgBAAAgAAAAgAAAACAAIAAgAAAIAgAAEAAAAgACIAAMQAAAAAAAAAAAAAAAAAAAAAAAAAAAAAAAAAA==

> <PUBCHEM_IUPAC_OPENEYE_NAME>
4-(1-ethynylprop-2-ynylidene)-N,N-dipropyl-cyclohexanamine

> <PUBCHEM_IUPAC_CAS_NAME>
4-penta-1,4-diyn-3-ylidene-N,N-dipropyl-1-cyclohexanamine

> <PUBCHEM_IUPAC_NAME_MARKUP>
4-penta-1,4-diyn-3-ylidene-<I>N</I>,<I>N</I>-dipropylcyclohexan-1-amine

> <PUBCHEM_IUPAC_NAME>
4-penta-1,4-diyn-3-ylidene-N,N-dipropylcyclohexan-1-amine

> <PUBCHEM_IUPAC_SYSTEMATIC_NAME>
4-penta-1,4-diyn-3-ylidene-N,N-dipropyl-cyclohexan-1-amine

> <PUBCHEM_IUPAC_TRADITIONAL_NAME>
[4-(1-ethynylprop-2-ynylidene)cyclohexyl]-dipropyl-amine

> <PUBCHEM_IUPAC_INCHI>
InChI=1S/C17H25N/c1-5-13-18(14-6-2)17-11-9-16(10-12-17)15(7-3)8-4/h3-4,17H,5-6,9-14H2,1-2H3

> <PUBCHEM_IUPAC_INCHIKEY>
CFCGTXOJJUJIIE-UHFFFAOYSA-N

> <PUBCHEM_XLOGP3_AA>
4.2

> <PUBCHEM_EXACT_MASS>
243.198699802

> <PUBCHEM_MOLECULAR_FORMULA>
C17H25N

> <PUBCHEM_MOLECULAR_WEIGHT>
243.4

> <PUBCHEM_OPENEYE_CAN_SMILES>
CCCN(CCC)C1CCC(=C(C#C)C#C)CC1

> <PUBCHEM_OPENEYE_ISO_SMILES>
CCCN(CCC)C1CCC(=C(C#C)C#C)CC1

> <PUBCHEM_CACTVS_TPSA>
3.2

> <PUBCHEM_MONOISOTOPIC_WEIGHT>
243.198699802

> <PUBCHEM_TOTAL_CHARGE>
0

> <PUBCHEM_HEAVY_ATOM_COUNT>
18

> <PUBCHEM_ATOM_DEF_STEREO_COUNT>
0

> <PUBCHEM_ATOM_UDEF_STEREO_COUNT>
0

> <PUBCHEM_BOND_DEF_STEREO_COUNT>
0

> <PUBCHEM_BOND_UDEF_STEREO_COUNT>
0

> <PUBCHEM_ISOTOPIC_ATOM_COUNT>
0

> <PUBCHEM_COMPONENT_COUNT>
1

> <PUBCHEM_CACTVS_TAUTO_COUNT>
-1

> <PUBCHEM_COORDINATE_TYPE>
1
5
255

$$$$
