56678598
  -OEChem-09292322322D

 67 69  0     0  0  0  0  0  0999 V2000
    0.0000    2.0917    0.0000 Cl  0  0  0  0  0  0  0  0  0  0  0  0
    3.4966    2.9712    0.0000 O   0  0  0  0  0  0  0  0  0  0  0  0
   10.0679    0.6305    0.0000 O   0  0  0  0  0  0  0  0  0  0  0  0
   15.3301    0.6546    0.0000 O   0  0  0  0  0  0  0  0  0  0  0  0
    6.3660    7.0203    0.0000 O   0  0  0  0  0  0  0  0  0  0  0  0
    8.9641    6.5203    0.0000 O   0  0  0  0  0  0  0  0  0  0  0  0
    7.2320    5.5203    0.0000 O   0  0  0  0  0  0  0  0  0  0  0  0
    8.0980    8.0203    0.0000 O   0  0  0  0  0  0  0  0  0  0  0  0
    5.7359    1.1138    0.0000 N   0  0  0  0  0  0  0  0  0  0  0  0
   13.5980    0.6546    0.0000 N   0  0  0  0  0  0  0  0  0  0  0  0
    4.0000    2.1071    0.0000 C   0  0  0  0  0  0  0  0  0  0  0  0
    4.8641    2.6104    0.0000 C   0  0  0  0  0  0  0  0  0  0  0  0
    4.0038    1.1071    0.0000 C   0  0  0  0  0  0  0  0  0  0  0  0
    5.7320    2.1138    0.0000 C   0  0  0  0  0  0  0  0  0  0  0  0
    4.8718    0.6104    0.0000 C   0  0  0  0  0  0  0  0  0  0  0  0
    6.6038    0.6171    0.0000 C   0  0  0  0  0  0  0  0  0  0  0  0
    3.0000    2.1032    0.0000 C   0  0  0  0  0  0  0  0  0  0  0  0
    7.4679    1.1204    0.0000 C   0  0  0  0  0  0  0  0  0  0  0  0
    8.3358    0.6238    0.0000 C   0  0  0  0  0  0  0  0  0  0  0  0
    2.5033    1.2353    0.0000 C   0  0  0  0  0  0  0  0  0  0  0  0
    2.4966    2.9673    0.0000 C   0  0  0  0  0  0  0  0  0  0  0  0
    9.1999    1.1271    0.0000 C   0  0  0  0  0  0  0  0  0  0  0  0
    1.5033    1.2314    0.0000 C   0  0  0  0  0  0  0  0  0  0  0  0
    1.4966    2.9635    0.0000 C   0  0  0  0  0  0  0  0  0  0  0  0
    1.0000    2.0955    0.0000 C   0  0  0  0  0  0  0  0  0  0  0  0
   10.9320    1.1338    0.0000 C   0  0  0  0  0  0  0  0  0  0  0  0
   12.7320    2.1546    0.0000 C   0  0  0  0  0  0  0  0  0  0  0  0
   12.7320    1.1546    0.0000 C   0  0  0  0  0  0  0  0  0  0  0  0
   13.5980    2.6546    0.0000 C   0  0  0  0  0  0  0  0  0  0  0  0
   11.8380    0.6200    0.0000 C   0  0  0  0  0  0  0  0  0  0  0  0
   14.4640    2.1546    0.0000 C   0  0  0  0  0  0  0  0  0  0  0  0
   10.9320    2.1754    0.0000 C   0  0  0  0  0  0  0  0  0  0  0  0
   11.8380    2.6893    0.0000 C   0  0  0  0  0  0  0  0  0  0  0  0
   14.4640    1.1546    0.0000 C   0  0  0  0  0  0  0  0  0  0  0  0
    7.2320    6.5203    0.0000 C   0  0  0  0  0  0  0  0  0  0  0  0
    8.0980    7.0203    0.0000 C   0  0  0  0  0  0  0  0  0  0  0  0
    5.2608    3.0869    0.0000 H   0  0  0  0  0  0  0  0  0  0  0  0
    4.4637    3.0838    0.0000 H   0  0  0  0  0  0  0  0  0  0  0  0
    3.3928    1.2124    0.0000 H   0  0  0  0  0  0  0  0  0  0  0  0
    3.7940    0.5237    0.0000 H   0  0  0  0  0  0  0  0  0  0  0  0
    6.3430    2.0085    0.0000 H   0  0  0  0  0  0  0  0  0  0  0  0
    5.9418    2.6972    0.0000 H   0  0  0  0  0  0  0  0  0  0  0  0
    4.4751    0.1340    0.0000 H   0  0  0  0  0  0  0  0  0  0  0  0
    5.2721    0.1370    0.0000 H   0  0  0  0  0  0  0  0  0  0  0  0
    6.2071    0.1406    0.0000 H   0  0  0  0  0  0  0  0  0  0  0  0
    7.0042    0.1437    0.0000 H   0  0  0  0  0  0  0  0  0  0  0  0
    7.8646    1.5969    0.0000 H   0  0  0  0  0  0  0  0  0  0  0  0
    7.0675    1.5939    0.0000 H   0  0  0  0  0  0  0  0  0  0  0  0
    3.8046    3.5093    0.0000 H   0  0  0  0  0  0  0  0  0  0  0  0
    7.9392    0.1473    0.0000 H   0  0  0  0  0  0  0  0  0  0  0  0
    8.7362    0.1504    0.0000 H   0  0  0  0  0  0  0  0  0  0  0  0
    2.8154    0.6996    0.0000 H   0  0  0  0  0  0  0  0  0  0  0  0
    2.8046    3.5055    0.0000 H   0  0  0  0  0  0  0  0  0  0  0  0
    9.5966    1.6036    0.0000 H   0  0  0  0  0  0  0  0  0  0  0  0
    8.7996    1.6005    0.0000 H   0  0  0  0  0  0  0  0  0  0  0  0
    1.1954    0.6933    0.0000 H   0  0  0  0  0  0  0  0  0  0  0  0
    1.1846    3.4992    0.0000 H   0  0  0  0  0  0  0  0  0  0  0  0
   13.9965    3.1296    0.0000 H   0  0  0  0  0  0  0  0  0  0  0  0
   13.1995    3.1296    0.0000 H   0  0  0  0  0  0  0  0  0  0  0  0
   11.8452    0.0000    0.0000 H   0  0  0  0  0  0  0  0  0  0  0  0
   15.0746    2.0470    0.0000 H   0  0  0  0  0  0  0  0  0  0  0  0
   14.6761    2.7372    0.0000 H   0  0  0  0  0  0  0  0  0  0  0  0
   10.3962    2.4875    0.0000 H   0  0  0  0  0  0  0  0  0  0  0  0
   11.8452    3.3092    0.0000 H   0  0  0  0  0  0  0  0  0  0  0  0
   13.5980    0.0346    0.0000 H   0  0  0  0  0  0  0  0  0  0  0  0
    5.8291    6.7103    0.0000 H   0  0  0  0  0  0  0  0  0  0  0  0
    9.5010    6.8303    0.0000 H   0  0  0  0  0  0  0  0  0  0  0  0
  1 25  1  0  0  0  0
  2 11  1  0  0  0  0
  2 49  1  0  0  0  0
  3 22  1  0  0  0  0
  3 26  1  0  0  0  0
  4 34  2  0  0  0  0
  5 35  1  0  0  0  0
  5 66  1  0  0  0  0
  6 36  1  0  0  0  0
  6 67  1  0  0  0  0
  7 35  2  0  0  0  0
  8 36  2  0  0  0  0
  9 14  1  0  0  0  0
  9 15  1  0  0  0  0
  9 16  1  0  0  0  0
 10 28  1  0  0  0  0
 10 34  1  0  0  0  0
 10 65  1  0  0  0  0
 11 12  1  0  0  0  0
 11 13  1  0  0  0  0
 11 17  1  0  0  0  0
 12 14  1  0  0  0  0
 12 37  1  0  0  0  0
 12 38  1  0  0  0  0
 13 15  1  0  0  0  0
 13 39  1  0  0  0  0
 13 40  1  0  0  0  0
 14 41  1  0  0  0  0
 14 42  1  0  0  0  0
 15 43  1  0  0  0  0
 15 44  1  0  0  0  0
 16 18  1  0  0  0  0
 16 45  1  0  0  0  0
 16 46  1  0  0  0  0
 17 20  2  0  0  0  0
 17 21  1  0  0  0  0
 18 19  1  0  0  0  0
 18 47  1  0  0  0  0
 18 48  1  0  0  0  0
 19 22  1  0  0  0  0
 19 50  1  0  0  0  0
 19 51  1  0  0  0  0
 20 23  1  0  0  0  0
 20 52  1  0  0  0  0
 21 24  2  0  0  0  0
 21 53  1  0  0  0  0
 22 54  1  0  0  0  0
 22 55  1  0  0  0  0
 23 25  2  0  0  0  0
 23 56  1  0  0  0  0
 24 25  1  0  0  0  0
 24 57  1  0  0  0  0
 26 30  2  0  0  0  0
 26 32  1  0  0  0  0
 27 28  2  0  0  0  0
 27 29  1  0  0  0  0
 27 33  1  0  0  0  0
 28 30  1  0  0  0  0
 29 31  1  0  0  0  0
 29 58  1  0  0  0  0
 29 59  1  0  0  0  0
 30 60  1  0  0  0  0
 31 34  1  0  0  0  0
 31 61  1  0  0  0  0
 31 62  1  0  0  0  0
 32 33  2  0  0  0  0
 32 63  1  0  0  0  0
 33 64  1  0  0  0  0
 35 36  1  0  0  0  0
M  END
> <PUBCHEM_COMPOUND_CID>
56678598

> <PUBCHEM_COMPOUND_CANONICALIZED>
1

> <PUBCHEM_CACTVS_COMPLEXITY>
630

> <PUBCHEM_CACTVS_HBOND_ACCEPTOR>
8

> <PUBCHEM_CACTVS_HBOND_DONOR>
4

> <PUBCHEM_CACTVS_ROTATABLE_BOND>
8

> <PUBCHEM_CACTVS_SUBSKEYS>
AAADceB7OAAEAAAAAAAAAAAAAAAAAAAAAAA8eIEAAAAAAACxQAAAHgIQCAAADE7hmCYwzoPABgCIAiXSWAKCCAAhJwAIiAFObogNJjLFs5uGeCjm1BnJ+Ae42eOepAAAAgACAABIAAAEAAQAAAAAAAAAAA==

> <PUBCHEM_IUPAC_OPENEYE_NAME>
7-[4-[4-(4-chlorophenyl)-4-hydroxy-1-piperidyl]butoxy]-3,4-dihydro-1H-quinolin-2-one;oxalic acid

> <PUBCHEM_IUPAC_CAS_NAME>
7-[4-[4-(4-chlorophenyl)-4-hydroxy-1-piperidinyl]butoxy]-3,4-dihydro-1H-quinolin-2-one;oxalic acid

> <PUBCHEM_IUPAC_NAME_MARKUP>
7-[4-[4-(4-chlorophenyl)-4-hydroxypiperidin-1-yl]butoxy]-3,4-dihydro-1<I>H</I>-quinolin-2-one;oxalic acid

> <PUBCHEM_IUPAC_NAME>
7-[4-[4-(4-chlorophenyl)-4-hydroxypiperidin-1-yl]butoxy]-3,4-dihydro-1H-quinolin-2-one;oxalic acid

> <PUBCHEM_IUPAC_SYSTEMATIC_NAME>
7-[4-[4-(4-chlorophenyl)-4-oxidanyl-piperidin-1-yl]butoxy]-3,4-dihydro-1H-quinolin-2-one;ethanedioic acid

> <PUBCHEM_IUPAC_TRADITIONAL_NAME>
7-[4-[4-(4-chlorophenyl)-4-hydroxy-piperidino]butoxy]-3,4-dihydrocarbostyril;oxalic acid

> <PUBCHEM_IUPAC_INCHI>
InChI=1S/C24H29ClN2O3.C2H2O4/c25-20-7-5-19(6-8-20)24(29)11-14-27(15-12-24)13-1-2-16-30-21-9-3-18-4-10-23(28)26-22(18)17-21;3-1(4)2(5)6/h3,5-9,17,29H,1-2,4,10-16H2,(H,26,28);(H,3,4)(H,5,6)

> <PUBCHEM_IUPAC_INCHIKEY>
IVZXOPVQHVASGJ-UHFFFAOYSA-N

> <PUBCHEM_EXACT_MASS>
518.1819790

> <PUBCHEM_MOLECULAR_FORMULA>
C26H31ClN2O7

> <PUBCHEM_MOLECULAR_WEIGHT>
519.0

> <PUBCHEM_OPENEYE_CAN_SMILES>
C1CC(=O)NC2=C1C=CC(=C2)OCCCCN3CCC(CC3)(C4=CC=C(C=C4)Cl)O.C(=O)(C(=O)O)O

> <PUBCHEM_OPENEYE_ISO_SMILES>
C1CC(=O)NC2=C1C=CC(=C2)OCCCCN3CCC(CC3)(C4=CC=C(C=C4)Cl)O.C(=O)(C(=O)O)O

> <PUBCHEM_CACTVS_TPSA>
136

> <PUBCHEM_MONOISOTOPIC_WEIGHT>
518.1819790

> <PUBCHEM_TOTAL_CHARGE>
0

> <PUBCHEM_HEAVY_ATOM_COUNT>
36

> <PUBCHEM_ATOM_DEF_STEREO_COUNT>
0

> <PUBCHEM_ATOM_UDEF_STEREO_COUNT>
0

> <PUBCHEM_BOND_DEF_STEREO_COUNT>
0

> <PUBCHEM_BOND_UDEF_STEREO_COUNT>
0

> <PUBCHEM_ISOTOPIC_ATOM_COUNT>
0

> <PUBCHEM_COMPONENT_COUNT>
2

> <PUBCHEM_CACTVS_TAUTO_COUNT>
-1

> <PUBCHEM_COORDINATE_TYPE>
1
5
255

> <PUBCHEM_BONDANNOTATIONS>
17  20  8
17  21  8
20  23  8
21  24  8
23  25  8
24  25  8
26  30  8
26  32  8
27  28  8
27  33  8
28  30  8
32  33  8

$$$$
