45264073
  -OEChem-09292322152D

 60 62  0     0  0  0  0  0  0999 V2000
    8.5421    6.8134    0.0000 Cl  0  0  0  0  0  0  0  0  0  0  0  0
    3.6453   11.9679    0.0000 S   0  0  0  0  0  0  0  0  0  0  0  0
    2.2690    2.6200    0.0000 O   0  0  0  0  0  0  0  0  0  0  0  0
    6.5421   10.2078    0.0000 O   0  0  0  0  0  0  0  0  0  0  0  0
    4.0010    5.6200    0.0000 N   0  0  0  0  0  0  0  0  0  0  0  0
    4.0010    3.6200    0.0000 N   0  0  0  0  0  0  0  0  0  0  0  0
    6.2331   11.1588    0.0000 N   0  0  0  0  0  0  0  0  0  0  0  0
    4.8671    5.1200    0.0000 C   0  0  0  0  0  0  0  0  0  0  0  0
    3.1350    5.1200    0.0000 C   0  0  0  0  0  0  0  0  0  0  0  0
    4.8671    4.1200    0.0000 C   0  0  0  0  0  0  0  0  0  0  0  0
    3.1350    4.1200    0.0000 C   0  0  0  0  0  0  0  0  0  0  0  0
    4.0010    6.6200    0.0000 C   0  0  0  0  0  0  0  0  0  0  0  0
    4.8671    7.1200    0.0000 C   0  0  0  0  0  0  0  0  0  0  0  0
    4.0010    2.6200    0.0000 C   0  0  0  0  0  0  0  0  0  0  0  0
    4.8671    8.1200    0.0000 C   0  0  0  0  0  0  0  0  0  0  0  0
    5.7331    8.6200    0.0000 C   0  0  0  0  0  0  0  0  0  0  0  0
    3.1350    2.1200    0.0000 C   0  0  0  0  0  0  0  0  0  0  0  0
    4.8671    2.1200    0.0000 C   0  0  0  0  0  0  0  0  0  0  0  0
    5.7331    9.6200    0.0000 C   0  0  0  0  0  0  0  0  0  0  0  0
    3.1350    1.1200    0.0000 C   0  0  0  0  0  0  0  0  0  0  0  0
    4.8671    1.1200    0.0000 C   0  0  0  0  0  0  0  0  0  0  0  0
    4.0010    0.6200    0.0000 C   0  0  0  0  0  0  0  0  0  0  0  0
    4.9241   10.2078    0.0000 C   0  0  0  0  0  0  0  0  0  0  0  0
    1.4030    2.1200    0.0000 C   0  0  0  0  0  0  0  0  0  0  0  0
    5.2331   11.1588    0.0000 C   0  0  0  0  0  0  0  0  0  0  0  0
    4.6453   11.9679    0.0000 C   0  0  0  0  0  0  0  0  0  0  0  0
    0.5369    2.6200    0.0000 C   0  0  0  0  0  0  0  0  0  0  0  0
    4.9543   12.9189    0.0000 C   0  0  0  0  0  0  0  0  0  0  0  0
    4.1453   13.5067    0.0000 C   0  0  0  0  0  0  0  0  0  0  0  0
    3.3363   12.9189    0.0000 C   0  0  0  0  0  0  0  0  0  0  0  0
    5.4776    5.0123    0.0000 H   0  0  0  0  0  0  0  0  0  0  0  0
    5.0791    5.7026    0.0000 H   0  0  0  0  0  0  0  0  0  0  0  0
    2.9230    5.7026    0.0000 H   0  0  0  0  0  0  0  0  0  0  0  0
    2.5244    5.0123    0.0000 H   0  0  0  0  0  0  0  0  0  0  0  0
    5.0791    3.5374    0.0000 H   0  0  0  0  0  0  0  0  0  0  0  0
    5.4776    4.2277    0.0000 H   0  0  0  0  0  0  0  0  0  0  0  0
    2.5244    4.2277    0.0000 H   0  0  0  0  0  0  0  0  0  0  0  0
    2.9230    3.5374    0.0000 H   0  0  0  0  0  0  0  0  0  0  0  0
    3.7890    7.2026    0.0000 H   0  0  0  0  0  0  0  0  0  0  0  0
    3.3905    6.5123    0.0000 H   0  0  0  0  0  0  0  0  0  0  0  0
    5.0791    6.5374    0.0000 H   0  0  0  0  0  0  0  0  0  0  0  0
    5.4776    7.2277    0.0000 H   0  0  0  0  0  0  0  0  0  0  0  0
    4.6550    8.7026    0.0000 H   0  0  0  0  0  0  0  0  0  0  0  0
    4.2565    8.0123    0.0000 H   0  0  0  0  0  0  0  0  0  0  0  0
    5.9451    8.0374    0.0000 H   0  0  0  0  0  0  0  0  0  0  0  0
    6.3437    8.7277    0.0000 H   0  0  0  0  0  0  0  0  0  0  0  0
    5.4040    2.4300    0.0000 H   0  0  0  0  0  0  0  0  0  0  0  0
    2.5981    0.8100    0.0000 H   0  0  0  0  0  0  0  0  0  0  0  0
    5.4040    0.8100    0.0000 H   0  0  0  0  0  0  0  0  0  0  0  0
    4.0010    0.0000    0.0000 H   0  0  0  0  0  0  0  0  0  0  0  0
    4.3344   10.0162    0.0000 H   0  0  0  0  0  0  0  0  0  0  0  0
    1.0044    1.6450    0.0000 H   0  0  0  0  0  0  0  0  0  0  0  0
    1.8015    1.6450    0.0000 H   0  0  0  0  0  0  0  0  0  0  0  0
    0.8469    3.1569    0.0000 H   0  0  0  0  0  0  0  0  0  0  0  0
    0.0000    2.9300    0.0000 H   0  0  0  0  0  0  0  0  0  0  0  0
    0.2269    2.0831    0.0000 H   0  0  0  0  0  0  0  0  0  0  0  0
    5.5440   13.1105    0.0000 H   0  0  0  0  0  0  0  0  0  0  0  0
    4.1453   14.1267    0.0000 H   0  0  0  0  0  0  0  0  0  0  0  0
    2.7466   13.1105    0.0000 H   0  0  0  0  0  0  0  0  0  0  0  0
    9.5421    6.8134    0.0000 H   0  0  0  0  0  0  0  0  0  0  0  0
  1 60  1  0  0  0  0
  2 26  1  0  0  0  0
  2 30  1  0  0  0  0
  3 17  1  0  0  0  0
  3 24  1  0  0  0  0
  4  7  1  0  0  0  0
  4 19  1  0  0  0  0
  5  8  1  0  0  0  0
  5  9  1  0  0  0  0
  5 12  1  0  0  0  0
  6 10  1  0  0  0  0
  6 11  1  0  0  0  0
  6 14  1  0  0  0  0
  7 25  2  0  0  0  0
  8 10  1  0  0  0  0
  8 31  1  0  0  0  0
  8 32  1  0  0  0  0
  9 11  1  0  0  0  0
  9 33  1  0  0  0  0
  9 34  1  0  0  0  0
 10 35  1  0  0  0  0
 10 36  1  0  0  0  0
 11 37  1  0  0  0  0
 11 38  1  0  0  0  0
 12 13  1  0  0  0  0
 12 39  1  0  0  0  0
 12 40  1  0  0  0  0
 13 15  1  0  0  0  0
 13 41  1  0  0  0  0
 13 42  1  0  0  0  0
 14 17  1  0  0  0  0
 14 18  2  0  0  0  0
 15 16  1  0  0  0  0
 15 43  1  0  0  0  0
 15 44  1  0  0  0  0
 16 19  1  0  0  0  0
 16 45  1  0  0  0  0
 16 46  1  0  0  0  0
 17 20  2  0  0  0  0
 18 21  1  0  0  0  0
 18 47  1  0  0  0  0
 19 23  2  0  0  0  0
 20 22  1  0  0  0  0
 20 48  1  0  0  0  0
 21 22  2  0  0  0  0
 21 49  1  0  0  0  0
 22 50  1  0  0  0  0
 23 25  1  0  0  0  0
 23 51  1  0  0  0  0
 24 27  1  0  0  0  0
 24 52  1  0  0  0  0
 24 53  1  0  0  0  0
 25 26  1  0  0  0  0
 26 28  2  0  0  0  0
 27 54  1  0  0  0  0
 27 55  1  0  0  0  0
 27 56  1  0  0  0  0
 28 29  1  0  0  0  0
 28 57  1  0  0  0  0
 29 30  2  0  0  0  0
 29 58  1  0  0  0  0
 30 59  1  0  0  0  0
M  END
> <PUBCHEM_COMPOUND_CID>
45264073

> <PUBCHEM_COMPOUND_CANONICALIZED>
1

> <PUBCHEM_CACTVS_COMPLEXITY>
475

> <PUBCHEM_CACTVS_HBOND_ACCEPTOR>
6

> <PUBCHEM_CACTVS_HBOND_DONOR>
1

> <PUBCHEM_CACTVS_ROTATABLE_BOND>
9

> <PUBCHEM_CACTVS_SUBSKEYS>
AAADceB7MABEAAAAAAAAAAAAAAAAAWJAAAA8QAAAAAAAAAAB8AAAHgQEAAAACAzl1gayx5MQBAitAaRyQgCDCIAlKhBomDk/bNoOZrrksZuXOajmwBn46UeY2aKAAAAAAAAAEAAAAAAAAAAgAAAAAAAAAA==

> <PUBCHEM_IUPAC_OPENEYE_NAME>
5-[4-[4-(2-ethoxyphenyl)piperazin-1-yl]butyl]-3-(2-thienyl)isoxazole;hydrochloride

> <PUBCHEM_IUPAC_CAS_NAME>
5-[4-[4-(2-ethoxyphenyl)-1-piperazinyl]butyl]-3-thiophen-2-ylisoxazole;hydrochloride

> <PUBCHEM_IUPAC_NAME_MARKUP>
5-[4-[4-(2-ethoxyphenyl)piperazin-1-yl]butyl]-3-thiophen-2-yl-1,2-oxazole;hydrochloride

> <PUBCHEM_IUPAC_NAME>
5-[4-[4-(2-ethoxyphenyl)piperazin-1-yl]butyl]-3-thiophen-2-yl-1,2-oxazole;hydrochloride

> <PUBCHEM_IUPAC_SYSTEMATIC_NAME>
5-[4-[4-(2-ethoxyphenyl)piperazin-1-yl]butyl]-3-thiophen-2-yl-1,2-oxazole;hydrochloride

> <PUBCHEM_IUPAC_TRADITIONAL_NAME>
5-[4-(4-o-phenetylpiperazino)butyl]-3-(2-thienyl)isoxazole;hydrochloride

> <PUBCHEM_IUPAC_INCHI>
InChI=1S/C23H29N3O2S.ClH/c1-2-27-22-10-4-3-9-21(22)26-15-13-25(14-16-26)12-6-5-8-19-18-20(24-28-19)23-11-7-17-29-23;/h3-4,7,9-11,17-18H,2,5-6,8,12-16H2,1H3;1H

> <PUBCHEM_IUPAC_INCHIKEY>
DJZRNJPOZHXUQP-UHFFFAOYSA-N

> <PUBCHEM_EXACT_MASS>
447.1747261

> <PUBCHEM_MOLECULAR_FORMULA>
C23H30ClN3O2S

> <PUBCHEM_MOLECULAR_WEIGHT>
448.0

> <PUBCHEM_OPENEYE_CAN_SMILES>
CCOC1=CC=CC=C1N2CCN(CC2)CCCCC3=CC(=NO3)C4=CC=CS4.Cl

> <PUBCHEM_OPENEYE_ISO_SMILES>
CCOC1=CC=CC=C1N2CCN(CC2)CCCCC3=CC(=NO3)C4=CC=CS4.Cl

> <PUBCHEM_CACTVS_TPSA>
70

> <PUBCHEM_MONOISOTOPIC_WEIGHT>
447.1747261

> <PUBCHEM_TOTAL_CHARGE>
0

> <PUBCHEM_HEAVY_ATOM_COUNT>
30

> <PUBCHEM_ATOM_DEF_STEREO_COUNT>
0

> <PUBCHEM_ATOM_UDEF_STEREO_COUNT>
0

> <PUBCHEM_BOND_DEF_STEREO_COUNT>
0

> <PUBCHEM_BOND_UDEF_STEREO_COUNT>
0

> <PUBCHEM_ISOTOPIC_ATOM_COUNT>
0

> <PUBCHEM_COMPONENT_COUNT>
2

> <PUBCHEM_CACTVS_TAUTO_COUNT>
-1

> <PUBCHEM_COORDINATE_TYPE>
1
5
255

> <PUBCHEM_BONDANNOTATIONS>
14  17  8
14  18  8
17  20  8
18  21  8
19  23  8
2  26  8
2  30  8
20  22  8
21  22  8
23  25  8
26  28  8
28  29  8
29  30  8
4  19  8
4  7  8
7  25  8

$$$$
