15467373
  -OEChem-09292322222D

 43 45  0     0  0  0  0  0  0999 V2000
    3.0510   -5.7400    0.0000 Cl  0  0  0  0  0  0  0  0  0  0  0  0
    3.0510    0.2600    0.0000 N   0  0  0  0  0  0  0  0  0  0  0  0
    3.0510   -1.7400    0.0000 N   0  0  0  0  0  0  0  0  0  0  0  0
    4.9997    2.9624    0.0000 N   0  0  0  0  0  0  0  0  0  0  0  0
    2.0000    5.7400    0.0000 N   0  0  0  0  0  0  0  0  0  0  0  0
    5.3884    5.0198    0.0000 N   0  0  0  0  0  0  0  0  0  0  0  0
    3.9170   -0.2400    0.0000 C   0  0  0  0  0  0  0  0  0  0  0  0
    2.1849   -0.2400    0.0000 C   0  0  0  0  0  0  0  0  0  0  0  0
    3.9170   -1.2400    0.0000 C   0  0  0  0  0  0  0  0  0  0  0  0
    2.1849   -1.2400    0.0000 C   0  0  0  0  0  0  0  0  0  0  0  0
    3.0510    1.2600    0.0000 C   0  0  0  0  0  0  0  0  0  0  0  0
    3.0510   -2.7400    0.0000 C   0  0  0  0  0  0  0  0  0  0  0  0
    3.9170    1.7600    0.0000 C   0  0  0  0  0  0  0  0  0  0  0  0
    4.0215    2.7545    0.0000 C   0  0  0  0  0  0  0  0  0  0  0  0
    4.8305    1.3532    0.0000 C   0  0  0  0  0  0  0  0  0  0  0  0
    3.9170   -3.2400    0.0000 C   0  0  0  0  0  0  0  0  0  0  0  0
    2.1849   -3.2400    0.0000 C   0  0  0  0  0  0  0  0  0  0  0  0
    5.4997    2.0964    0.0000 C   0  0  0  0  0  0  0  0  0  0  0  0
    3.9170   -4.2400    0.0000 C   0  0  0  0  0  0  0  0  0  0  0  0
    2.1849   -4.2400    0.0000 C   0  0  0  0  0  0  0  0  0  0  0  0
    3.2784    3.4236    0.0000 C   0  0  0  0  0  0  0  0  0  0  0  0
    3.0510   -4.7400    0.0000 C   0  0  0  0  0  0  0  0  0  0  0  0
    3.4863    4.4018    0.0000 C   0  0  0  0  0  0  0  0  0  0  0  0
    2.7431    5.0709    0.0000 C   0  0  0  0  0  0  0  0  0  0  0  0
    4.4374    4.7108    0.0000 C   0  0  0  0  0  0  0  0  0  0  0  0
    4.5276   -0.3477    0.0000 H   0  0  0  0  0  0  0  0  0  0  0  0
    4.1290    0.3426    0.0000 H   0  0  0  0  0  0  0  0  0  0  0  0
    1.9729    0.3426    0.0000 H   0  0  0  0  0  0  0  0  0  0  0  0
    1.5744   -0.3477    0.0000 H   0  0  0  0  0  0  0  0  0  0  0  0
    4.1290   -1.8226    0.0000 H   0  0  0  0  0  0  0  0  0  0  0  0
    4.5276   -1.1324    0.0000 H   0  0  0  0  0  0  0  0  0  0  0  0
    1.5744   -1.1324    0.0000 H   0  0  0  0  0  0  0  0  0  0  0  0
    1.9729   -1.8226    0.0000 H   0  0  0  0  0  0  0  0  0  0  0  0
    2.8389    1.8426    0.0000 H   0  0  0  0  0  0  0  0  0  0  0  0
    2.4404    1.1523    0.0000 H   0  0  0  0  0  0  0  0  0  0  0  0
    4.9594    0.7468    0.0000 H   0  0  0  0  0  0  0  0  0  0  0  0
    4.4539   -2.9300    0.0000 H   0  0  0  0  0  0  0  0  0  0  0  0
    1.6480   -2.9300    0.0000 H   0  0  0  0  0  0  0  0  0  0  0  0
    5.2518    3.5288    0.0000 H   0  0  0  0  0  0  0  0  0  0  0  0
    6.1163    2.0316    0.0000 H   0  0  0  0  0  0  0  0  0  0  0  0
    4.4539   -4.5500    0.0000 H   0  0  0  0  0  0  0  0  0  0  0  0
    1.6480   -4.5500    0.0000 H   0  0  0  0  0  0  0  0  0  0  0  0
    2.6887    3.2320    0.0000 H   0  0  0  0  0  0  0  0  0  0  0  0
  1 22  1  0  0  0  0
  2  7  1  0  0  0  0
  2  8  1  0  0  0  0
  2 11  1  0  0  0  0
  3  9  1  0  0  0  0
  3 10  1  0  0  0  0
  3 12  1  0  0  0  0
  4 14  1  0  0  0  0
  4 18  1  0  0  0  0
  4 39  1  0  0  0  0
  5 24  3  0  0  0  0
  6 25  3  0  0  0  0
  7  9  1  0  0  0  0
  7 26  1  0  0  0  0
  7 27  1  0  0  0  0
  8 10  1  0  0  0  0
  8 28  1  0  0  0  0
  8 29  1  0  0  0  0
  9 30  1  0  0  0  0
  9 31  1  0  0  0  0
 10 32  1  0  0  0  0
 10 33  1  0  0  0  0
 11 13  1  0  0  0  0
 11 34  1  0  0  0  0
 11 35  1  0  0  0  0
 12 16  2  0  0  0  0
 12 17  1  0  0  0  0
 13 14  2  0  0  0  0
 13 15  1  0  0  0  0
 14 21  1  0  0  0  0
 15 18  2  0  0  0  0
 15 36  1  0  0  0  0
 16 19  1  0  0  0  0
 16 37  1  0  0  0  0
 17 20  2  0  0  0  0
 17 38  1  0  0  0  0
 18 40  1  0  0  0  0
 19 22  2  0  0  0  0
 19 41  1  0  0  0  0
 20 22  1  0  0  0  0
 20 42  1  0  0  0  0
 21 23  2  0  0  0  0
 21 43  1  0  0  0  0
 23 24  1  0  0  0  0
 23 25  1  0  0  0  0
M  END
> <PUBCHEM_COMPOUND_CID>
15467373

> <PUBCHEM_COMPOUND_CANONICALIZED>
1

> <PUBCHEM_CACTVS_COMPLEXITY>
551

> <PUBCHEM_CACTVS_HBOND_ACCEPTOR>
4

> <PUBCHEM_CACTVS_HBOND_DONOR>
1

> <PUBCHEM_CACTVS_ROTATABLE_BOND>
4

> <PUBCHEM_CACTVS_SUBSKEYS>
AAADceB7gAAEAAAAAAAAAAAAAAAAAWAAAAA8QAAAAAAAAAABwAAAHAIQAAAADArBHiQ8wJPJkACwBzRnRACigCAxByAI2aA4ZpgI4OLB05GUIAhgkADIyAcQAAAKAABAAAAAAAAAAIAAAAAAAAAAAAAAAA==

> <PUBCHEM_IUPAC_OPENEYE_NAME>
2-[[3-[[4-(4-chlorophenyl)piperazin-1-yl]methyl]-1H-pyrrol-2-yl]methylene]propanedinitrile

> <PUBCHEM_IUPAC_CAS_NAME>
2-[[3-[[4-(4-chlorophenyl)-1-piperazinyl]methyl]-1H-pyrrol-2-yl]methylidene]propanedinitrile

> <PUBCHEM_IUPAC_NAME_MARKUP>
2-[[3-[[4-(4-chlorophenyl)piperazin-1-yl]methyl]-1<I>H</I>-pyrrol-2-yl]methylidene]propanedinitrile

> <PUBCHEM_IUPAC_NAME>
2-[[3-[[4-(4-chlorophenyl)piperazin-1-yl]methyl]-1H-pyrrol-2-yl]methylidene]propanedinitrile

> <PUBCHEM_IUPAC_SYSTEMATIC_NAME>
2-[[3-[[4-(4-chlorophenyl)piperazin-1-yl]methyl]-1H-pyrrol-2-yl]methylidene]propanedinitrile

> <PUBCHEM_IUPAC_TRADITIONAL_NAME>
2-[[3-[[4-(4-chlorophenyl)piperazino]methyl]-1H-pyrrol-2-yl]methylene]malononitrile

> <PUBCHEM_IUPAC_INCHI>
InChI=1S/C19H18ClN5/c20-17-1-3-18(4-2-17)25-9-7-24(8-10-25)14-16-5-6-23-19(16)11-15(12-21)13-22/h1-6,11,23H,7-10,14H2

> <PUBCHEM_IUPAC_INCHIKEY>
RCACIEKJQOIDQV-UHFFFAOYSA-N

> <PUBCHEM_XLOGP3_AA>
2.9

> <PUBCHEM_EXACT_MASS>
351.1250733

> <PUBCHEM_MOLECULAR_FORMULA>
C19H18ClN5

> <PUBCHEM_MOLECULAR_WEIGHT>
351.8

> <PUBCHEM_OPENEYE_CAN_SMILES>
C1CN(CCN1CC2=C(NC=C2)C=C(C#N)C#N)C3=CC=C(C=C3)Cl

> <PUBCHEM_OPENEYE_ISO_SMILES>
C1CN(CCN1CC2=C(NC=C2)C=C(C#N)C#N)C3=CC=C(C=C3)Cl

> <PUBCHEM_CACTVS_TPSA>
69.8

> <PUBCHEM_MONOISOTOPIC_WEIGHT>
351.1250733

> <PUBCHEM_TOTAL_CHARGE>
0

> <PUBCHEM_HEAVY_ATOM_COUNT>
25

> <PUBCHEM_ATOM_DEF_STEREO_COUNT>
0

> <PUBCHEM_ATOM_UDEF_STEREO_COUNT>
0

> <PUBCHEM_BOND_DEF_STEREO_COUNT>
0

> <PUBCHEM_BOND_UDEF_STEREO_COUNT>
0

> <PUBCHEM_ISOTOPIC_ATOM_COUNT>
0

> <PUBCHEM_COMPONENT_COUNT>
1

> <PUBCHEM_CACTVS_TAUTO_COUNT>
-1

> <PUBCHEM_COORDINATE_TYPE>
1
5
255

> <PUBCHEM_BONDANNOTATIONS>
12  16  8
12  17  8
13  14  8
13  15  8
15  18  8
16  19  8
17  20  8
19  22  8
20  22  8
4  14  8
4  18  8

$$$$
