122189394
  -OEChem-09292322002D

 57 61  0     0  0  0  0  0  0999 V2000
    3.9890    2.5249    0.0000 Cl  0  0  0  0  0  0  0  0  0  0  0  0
    2.0000    2.3159    0.0000 Cl  0  0  0  0  0  0  0  0  0  0  0  0
    7.1537    1.1159    0.0000 N   0  0  0  0  0  0  0  0  0  0  0  0
    5.1646    0.9069    0.0000 N   0  0  0  0  0  0  0  0  0  0  0  0
   12.8955   -0.5249    0.0000 N   0  0  0  0  0  0  0  0  0  0  0  0
   11.8128    0.6775    0.0000 N   0  0  0  0  0  0  0  0  0  0  0  0
   12.7909    0.4696    0.0000 N   0  0  0  0  0  0  0  0  0  0  0  0
   15.4935   -2.0249    0.0000 N   0  0  0  0  0  0  0  0  0  0  0  0
   16.4398   -2.3296    0.0000 N   0  0  0  0  0  0  0  0  0  0  0  0
    6.5659    1.9250    0.0000 C   0  0  0  0  0  0  0  0  0  0  0  0
    6.7469    0.2024    0.0000 C   0  0  0  0  0  0  0  0  0  0  0  0
    5.5714    1.8204    0.0000 C   0  0  0  0  0  0  0  0  0  0  0  0
    5.7524    0.0979    0.0000 C   0  0  0  0  0  0  0  0  0  0  0  0
    8.1482    1.2205    0.0000 C   0  0  0  0  0  0  0  0  0  0  0  0
    8.7360    0.4115    0.0000 C   0  0  0  0  0  0  0  0  0  0  0  0
    9.7305    0.5160    0.0000 C   0  0  0  0  0  0  0  0  0  0  0  0
    4.1701    0.8024    0.0000 C   0  0  0  0  0  0  0  0  0  0  0  0
   10.3183   -0.2930    0.0000 C   0  0  0  0  0  0  0  0  0  0  0  0
    3.5823    1.6114    0.0000 C   0  0  0  0  0  0  0  0  0  0  0  0
    3.7634   -0.1112    0.0000 C   0  0  0  0  0  0  0  0  0  0  0  0
   11.3128   -0.1885    0.0000 C   0  0  0  0  0  0  0  0  0  0  0  0
    2.5878    1.5068    0.0000 C   0  0  0  0  0  0  0  0  0  0  0  0
    2.7688   -0.2157    0.0000 C   0  0  0  0  0  0  0  0  0  0  0  0
   11.9819   -0.9317    0.0000 C   0  0  0  0  0  0  0  0  0  0  0  0
    2.1810    0.5933    0.0000 C   0  0  0  0  0  0  0  0  0  0  0  0
   13.7615   -1.0249    0.0000 C   0  0  0  0  0  0  0  0  0  0  0  0
   14.6275   -0.5249    0.0000 C   0  0  0  0  0  0  0  0  0  0  0  0
   15.4935   -1.0249    0.0000 C   0  0  0  0  0  0  0  0  0  0  0  0
   13.7615   -2.0249    0.0000 C   0  0  0  0  0  0  0  0  0  0  0  0
   14.6275   -2.5249    0.0000 C   0  0  0  0  0  0  0  0  0  0  0  0
   16.4398   -0.7202    0.0000 C   0  0  0  0  0  0  0  0  0  0  0  0
   17.0234   -1.5249    0.0000 C   0  0  0  0  0  0  0  0  0  0  0  0
    7.1231    2.1968    0.0000 H   0  0  0  0  0  0  0  0  0  0  0  0
    6.3950    2.5209    0.0000 H   0  0  0  0  0  0  0  0  0  0  0  0
    6.7037   -0.4161    0.0000 H   0  0  0  0  0  0  0  0  0  0  0  0
    7.3485    0.0524    0.0000 H   0  0  0  0  0  0  0  0  0  0  0  0
    5.6146    2.4389    0.0000 H   0  0  0  0  0  0  0  0  0  0  0  0
    4.9698    1.9704    0.0000 H   0  0  0  0  0  0  0  0  0  0  0  0
    5.1952   -0.1739    0.0000 H   0  0  0  0  0  0  0  0  0  0  0  0
    5.9233   -0.4981    0.0000 H   0  0  0  0  0  0  0  0  0  0  0  0
    8.7054    1.4923    0.0000 H   0  0  0  0  0  0  0  0  0  0  0  0
    7.9773    1.8164    0.0000 H   0  0  0  0  0  0  0  0  0  0  0  0
    8.1787    0.1397    0.0000 H   0  0  0  0  0  0  0  0  0  0  0  0
    8.9069   -0.1845    0.0000 H   0  0  0  0  0  0  0  0  0  0  0  0
   10.2877    0.7878    0.0000 H   0  0  0  0  0  0  0  0  0  0  0  0
    9.5596    1.1120    0.0000 H   0  0  0  0  0  0  0  0  0  0  0  0
    9.7610   -0.5648    0.0000 H   0  0  0  0  0  0  0  0  0  0  0  0
   10.4892   -0.8890    0.0000 H   0  0  0  0  0  0  0  0  0  0  0  0
    4.1278   -0.6128    0.0000 H   0  0  0  0  0  0  0  0  0  0  0  0
    2.5167   -0.7821    0.0000 H   0  0  0  0  0  0  0  0  0  0  0  0
   11.8530   -1.5381    0.0000 H   0  0  0  0  0  0  0  0  0  0  0  0
    1.5644    0.5285    0.0000 H   0  0  0  0  0  0  0  0  0  0  0  0
   14.6275    0.0951    0.0000 H   0  0  0  0  0  0  0  0  0  0  0  0
   13.2246   -2.3349    0.0000 H   0  0  0  0  0  0  0  0  0  0  0  0
   14.6275   -3.1449    0.0000 H   0  0  0  0  0  0  0  0  0  0  0  0
   16.6324   -0.1309    0.0000 H   0  0  0  0  0  0  0  0  0  0  0  0
   17.6434   -1.5249    0.0000 H   0  0  0  0  0  0  0  0  0  0  0  0
  1 19  1  0  0  0  0
  2 22  1  0  0  0  0
  3 10  1  0  0  0  0
  3 11  1  0  0  0  0
  3 14  1  0  0  0  0
  4 12  1  0  0  0  0
  4 13  1  0  0  0  0
  4 17  1  0  0  0  0
  5  7  1  0  0  0  0
  5 24  1  0  0  0  0
  5 26  1  0  0  0  0
  6  7  2  0  0  0  0
  6 21  1  0  0  0  0
  8  9  1  0  0  0  0
  8 28  1  0  0  0  0
  8 30  1  0  0  0  0
  9 32  2  0  0  0  0
 10 12  1  0  0  0  0
 10 33  1  0  0  0  0
 10 34  1  0  0  0  0
 11 13  1  0  0  0  0
 11 35  1  0  0  0  0
 11 36  1  0  0  0  0
 12 37  1  0  0  0  0
 12 38  1  0  0  0  0
 13 39  1  0  0  0  0
 13 40  1  0  0  0  0
 14 15  1  0  0  0  0
 14 41  1  0  0  0  0
 14 42  1  0  0  0  0
 15 16  1  0  0  0  0
 15 43  1  0  0  0  0
 15 44  1  0  0  0  0
 16 18  1  0  0  0  0
 16 45  1  0  0  0  0
 16 46  1  0  0  0  0
 17 19  2  0  0  0  0
 17 20  1  0  0  0  0
 18 21  1  0  0  0  0
 18 47  1  0  0  0  0
 18 48  1  0  0  0  0
 19 22  1  0  0  0  0
 20 23  2  0  0  0  0
 20 49  1  0  0  0  0
 21 24  2  0  0  0  0
 22 25  2  0  0  0  0
 23 25  1  0  0  0  0
 23 50  1  0  0  0  0
 24 51  1  0  0  0  0
 25 52  1  0  0  0  0
 26 27  2  0  0  0  0
 26 29  1  0  0  0  0
 27 28  1  0  0  0  0
 27 53  1  0  0  0  0
 28 31  2  0  0  0  0
 29 30  2  0  0  0  0
 29 54  1  0  0  0  0
 30 55  1  0  0  0  0
 31 32  1  0  0  0  0
 31 56  1  0  0  0  0
 32 57  1  0  0  0  0
M  END
> <PUBCHEM_COMPOUND_CID>
122189394

> <PUBCHEM_COMPOUND_CANONICALIZED>
1

> <PUBCHEM_CACTVS_COMPLEXITY>
591

> <PUBCHEM_CACTVS_HBOND_ACCEPTOR>
5

> <PUBCHEM_CACTVS_HBOND_DONOR>
0

> <PUBCHEM_CACTVS_ROTATABLE_BOND>
7

> <PUBCHEM_CACTVS_SUBSKEYS>
AAADceB7gAAGAAAAAAAAAAAAAAAAAWLAAAA8WIAAAAAAAFgB/AAAHAIIAAAACArBFiQ8wLMIEACiATRnRACShCQxlyAY2mA4dpgIYOLB09HUpAhgiADIyAcQgAAAAAAAAAIAABQAAAAABAAAKAAAAAAAAA==

> <PUBCHEM_IUPAC_OPENEYE_NAME>
5-[4-[4-[4-(2,3-dichlorophenyl)piperazin-1-yl]butyl]triazol-1-yl]pyrazolo[1,5-a]pyridine

> <PUBCHEM_IUPAC_CAS_NAME>
5-[4-[4-[4-(2,3-dichlorophenyl)-1-piperazinyl]butyl]-1-triazolyl]pyrazolo[1,5-a]pyridine

> <PUBCHEM_IUPAC_NAME_MARKUP>
5-[4-[4-[4-(2,3-dichlorophenyl)piperazin-1-yl]butyl]triazol-1-yl]pyrazolo[1,5-a]pyridine

> <PUBCHEM_IUPAC_NAME>
5-[4-[4-[4-(2,3-dichlorophenyl)piperazin-1-yl]butyl]triazol-1-yl]pyrazolo[1,5-a]pyridine

> <PUBCHEM_IUPAC_SYSTEMATIC_NAME>
5-[4-[4-[4-[2,3-bis(chloranyl)phenyl]piperazin-1-yl]butyl]-1,2,3-triazol-1-yl]pyrazolo[1,5-a]pyridine

> <PUBCHEM_IUPAC_TRADITIONAL_NAME>
5-[4-[4-[4-(2,3-dichlorophenyl)piperazino]butyl]triazol-1-yl]pyrazolo[1,5-a]pyridine

> <PUBCHEM_IUPAC_INCHI>
InChI=1S/C23H25Cl2N7/c24-21-5-3-6-22(23(21)25)30-14-12-29(13-15-30)10-2-1-4-18-17-32(28-27-18)20-8-11-31-19(16-20)7-9-26-31/h3,5-9,11,16-17H,1-2,4,10,12-15H2

> <PUBCHEM_IUPAC_INCHIKEY>
XEJNCXFNKSUHHY-UHFFFAOYSA-N

> <PUBCHEM_XLOGP3_AA>
4.4

> <PUBCHEM_EXACT_MASS>
469.1548492

> <PUBCHEM_MOLECULAR_FORMULA>
C23H25Cl2N7

> <PUBCHEM_MOLECULAR_WEIGHT>
470.4

> <PUBCHEM_OPENEYE_CAN_SMILES>
C1CN(CCN1CCCCC2=CN(N=N2)C3=CC4=CC=NN4C=C3)C5=C(C(=CC=C5)Cl)Cl

> <PUBCHEM_OPENEYE_ISO_SMILES>
C1CN(CCN1CCCCC2=CN(N=N2)C3=CC4=CC=NN4C=C3)C5=C(C(=CC=C5)Cl)Cl

> <PUBCHEM_CACTVS_TPSA>
54.5

> <PUBCHEM_MONOISOTOPIC_WEIGHT>
469.1548492

> <PUBCHEM_TOTAL_CHARGE>
0

> <PUBCHEM_HEAVY_ATOM_COUNT>
32

> <PUBCHEM_ATOM_DEF_STEREO_COUNT>
0

> <PUBCHEM_ATOM_UDEF_STEREO_COUNT>
0

> <PUBCHEM_BOND_DEF_STEREO_COUNT>
0

> <PUBCHEM_BOND_UDEF_STEREO_COUNT>
0

> <PUBCHEM_ISOTOPIC_ATOM_COUNT>
0

> <PUBCHEM_COMPONENT_COUNT>
1

> <PUBCHEM_CACTVS_TAUTO_COUNT>
-1

> <PUBCHEM_COORDINATE_TYPE>
1
5
255

> <PUBCHEM_BONDANNOTATIONS>
17  19  8
17  20  8
19  22  8
20  23  8
21  24  8
22  25  8
23  25  8
26  27  8
26  29  8
27  28  8
28  31  8
29  30  8
31  32  8
5  24  8
5  7  8
6  21  8
6  7  8
8  28  8
8  30  8
8  9  8
9  32  8

$$$$
