9906447
  -OEChem-09292322482D

 48 51  0     1  0  0  0  0  0999 V2000
    2.0000   -0.6870    0.0000 F   0  0  0  0  0  0  0  0  0  0  0  0
    9.0084   -0.4917    0.0000 O   0  0  0  0  0  0  0  0  0  0  0  0
    5.4641    2.3130    0.0000 O   0  0  0  0  0  0  0  0  0  0  0  0
   12.0920   -0.5530    0.0000 N   0  0  3  0  0  0  0  0  0  0  0  0
   12.6798   -1.3620    0.0000 C   0  0  1  0  0  0  0  0  0  0  0  0
   13.6308   -1.0530    0.0000 C   0  0  0  0  0  0  0  0  0  0  0  0
   12.6798    0.2560    0.0000 C   0  0  0  0  0  0  0  0  0  0  0  0
   13.6308   -0.0530    0.0000 C   0  0  0  0  0  0  0  0  0  0  0  0
   11.0920   -0.5530    0.0000 C   0  0  0  0  0  0  0  0  0  0  0  0
   12.3708   -2.3130    0.0000 C   0  0  0  0  0  0  0  0  0  0  0  0
   10.5920    0.3130    0.0000 C   0  0  0  0  0  0  0  0  0  0  0  0
    9.5920    0.3130    0.0000 C   0  0  0  0  0  0  0  0  0  0  0  0
    9.0084    1.1178    0.0000 C   0  0  0  0  0  0  0  0  0  0  0  0
    8.0622    0.8130    0.0000 C   0  0  0  0  0  0  0  0  0  0  0  0
    8.0622   -0.1870    0.0000 C   0  0  0  0  0  0  0  0  0  0  0  0
    7.1962    1.3130    0.0000 C   0  0  0  0  0  0  0  0  0  0  0  0
    7.1962   -0.6870    0.0000 C   0  0  0  0  0  0  0  0  0  0  0  0
    6.3301    0.8130    0.0000 C   0  0  0  0  0  0  0  0  0  0  0  0
    6.3301   -0.1870    0.0000 C   0  0  0  0  0  0  0  0  0  0  0  0
    5.4641    1.3130    0.0000 C   0  0  0  0  0  0  0  0  0  0  0  0
    4.5981    0.8130    0.0000 C   0  0  0  0  0  0  0  0  0  0  0  0
    4.5981   -0.1870    0.0000 C   0  0  0  0  0  0  0  0  0  0  0  0
    3.7320    1.3130    0.0000 C   0  0  0  0  0  0  0  0  0  0  0  0
    3.7320   -0.6870    0.0000 C   0  0  0  0  0  0  0  0  0  0  0  0
    2.8660    0.8130    0.0000 C   0  0  0  0  0  0  0  0  0  0  0  0
    2.8660   -0.1870    0.0000 C   0  0  0  0  0  0  0  0  0  0  0  0
   12.0674   -1.4590    0.0000 H   0  0  0  0  0  0  0  0  0  0  0  0
   13.7598   -1.6594    0.0000 H   0  0  0  0  0  0  0  0  0  0  0  0
   14.2475   -0.9882    0.0000 H   0  0  0  0  0  0  0  0  0  0  0  0
   12.9320    0.8224    0.0000 H   0  0  0  0  0  0  0  0  0  0  0  0
   12.1429    0.5660    0.0000 H   0  0  0  0  0  0  0  0  0  0  0  0
   14.2475   -0.1178    0.0000 H   0  0  0  0  0  0  0  0  0  0  0  0
   13.7598    0.5535    0.0000 H   0  0  0  0  0  0  0  0  0  0  0  0
   10.5094   -0.7650    0.0000 H   0  0  0  0  0  0  0  0  0  0  0  0
   11.1997   -1.1636    0.0000 H   0  0  0  0  0  0  0  0  0  0  0  0
   11.7811   -2.1215    0.0000 H   0  0  0  0  0  0  0  0  0  0  0  0
   12.1792   -2.9027    0.0000 H   0  0  0  0  0  0  0  0  0  0  0  0
   12.9604   -2.5046    0.0000 H   0  0  0  0  0  0  0  0  0  0  0  0
   11.1746    0.5251    0.0000 H   0  0  0  0  0  0  0  0  0  0  0  0
   10.4843    0.9236    0.0000 H   0  0  0  0  0  0  0  0  0  0  0  0
    9.2010    1.7071    0.0000 H   0  0  0  0  0  0  0  0  0  0  0  0
    7.1962    1.9330    0.0000 H   0  0  0  0  0  0  0  0  0  0  0  0
    7.1962   -1.3070    0.0000 H   0  0  0  0  0  0  0  0  0  0  0  0
    5.7932   -0.4970    0.0000 H   0  0  0  0  0  0  0  0  0  0  0  0
    5.1350   -0.4970    0.0000 H   0  0  0  0  0  0  0  0  0  0  0  0
    3.7320    1.9330    0.0000 H   0  0  0  0  0  0  0  0  0  0  0  0
    3.7320   -1.3070    0.0000 H   0  0  0  0  0  0  0  0  0  0  0  0
    2.3291    1.1231    0.0000 H   0  0  0  0  0  0  0  0  0  0  0  0
  1 26  1  0  0  0  0
  2 12  1  0  0  0  0
  2 15  1  0  0  0  0
  3 20  2  0  0  0  0
  4  5  1  0  0  0  0
  4  7  1  0  0  0  0
  4  9  1  0  0  0  0
  5  6  1  0  0  0  0
  5 10  1  1  0  0  0
  5 27  1  0  0  0  0
  6  8  1  0  0  0  0
  6 28  1  0  0  0  0
  6 29  1  0  0  0  0
  7  8  1  0  0  0  0
  7 30  1  0  0  0  0
  7 31  1  0  0  0  0
  8 32  1  0  0  0  0
  8 33  1  0  0  0  0
  9 11  1  0  0  0  0
  9 34  1  0  0  0  0
  9 35  1  0  0  0  0
 10 36  1  0  0  0  0
 10 37  1  0  0  0  0
 10 38  1  0  0  0  0
 11 12  1  0  0  0  0
 11 39  1  0  0  0  0
 11 40  1  0  0  0  0
 12 13  2  0  0  0  0
 13 14  1  0  0  0  0
 13 41  1  0  0  0  0
 14 15  2  0  0  0  0
 14 16  1  0  0  0  0
 15 17  1  0  0  0  0
 16 18  2  0  0  0  0
 16 42  1  0  0  0  0
 17 19  2  0  0  0  0
 17 43  1  0  0  0  0
 18 19  1  0  0  0  0
 18 20  1  0  0  0  0
 19 44  1  0  0  0  0
 20 21  1  0  0  0  0
 21 22  2  0  0  0  0
 21 23  1  0  0  0  0
 22 24  1  0  0  0  0
 22 45  1  0  0  0  0
 23 25  2  0  0  0  0
 23 46  1  0  0  0  0
 24 26  2  0  0  0  0
 24 47  1  0  0  0  0
 25 26  1  0  0  0  0
 25 48  1  0  0  0  0
M  END
> <PUBCHEM_COMPOUND_CID>
9906447

> <PUBCHEM_COMPOUND_CANONICALIZED>
1

> <PUBCHEM_CACTVS_COMPLEXITY>
491

> <PUBCHEM_CACTVS_HBOND_ACCEPTOR>
4

> <PUBCHEM_CACTVS_HBOND_DONOR>
0

> <PUBCHEM_CACTVS_ROTATABLE_BOND>
5

> <PUBCHEM_CACTVS_SUBSKEYS>
AAADceB6MQAAAAAAAAAAAAAAAAAAAWJAAAAwYAAAAAAAAEgB9AAAHwAAAAAADCzBmAwyBsMABECIAqBSAAACCAAkIAAIiAEOCMgMJjqEtRuGOSCmwBGIqYeYzvDuIAACAAAIAABAAAQAABAAAAAAAAAAAA==

> <PUBCHEM_IUPAC_OPENEYE_NAME>
(4-fluorophenyl)-[2-[2-[(2R)-2-methylpyrrolidin-1-yl]ethyl]benzofuran-5-yl]methanone

> <PUBCHEM_IUPAC_CAS_NAME>
(4-fluorophenyl)-[2-[2-[(2R)-2-methyl-1-pyrrolidinyl]ethyl]-5-benzofuranyl]methanone

> <PUBCHEM_IUPAC_NAME_MARKUP>
(4-fluorophenyl)-[2-[2-[(2<I>R</I>)-2-methylpyrrolidin-1-yl]ethyl]-1-benzofuran-5-yl]methanone

> <PUBCHEM_IUPAC_NAME>
(4-fluorophenyl)-[2-[2-[(2R)-2-methylpyrrolidin-1-yl]ethyl]-1-benzofuran-5-yl]methanone

> <PUBCHEM_IUPAC_SYSTEMATIC_NAME>
(4-fluorophenyl)-[2-[2-[(2R)-2-methylpyrrolidin-1-yl]ethyl]-1-benzofuran-5-yl]methanone

> <PUBCHEM_IUPAC_TRADITIONAL_NAME>
(4-fluorophenyl)-[2-[2-[(2R)-2-methylpyrrolidino]ethyl]benzofuran-5-yl]methanone

> <PUBCHEM_IUPAC_INCHI>
InChI=1S/C22H22FNO2/c1-15-3-2-11-24(15)12-10-20-14-18-13-17(6-9-21(18)26-20)22(25)16-4-7-19(23)8-5-16/h4-9,13-15H,2-3,10-12H2,1H3/t15-/m1/s1

> <PUBCHEM_IUPAC_INCHIKEY>
VGSYEFOBFMUWGO-OAHLLOKOSA-N

> <PUBCHEM_XLOGP3_AA>
5

> <PUBCHEM_EXACT_MASS>
351.16345711

> <PUBCHEM_MOLECULAR_FORMULA>
C22H22FNO2

> <PUBCHEM_MOLECULAR_WEIGHT>
351.4

> <PUBCHEM_OPENEYE_CAN_SMILES>
CC1CCCN1CCC2=CC3=C(O2)C=CC(=C3)C(=O)C4=CC=C(C=C4)F

> <PUBCHEM_OPENEYE_ISO_SMILES>
C[C@@H]1CCCN1CCC2=CC3=C(O2)C=CC(=C3)C(=O)C4=CC=C(C=C4)F

> <PUBCHEM_CACTVS_TPSA>
33.4

> <PUBCHEM_MONOISOTOPIC_WEIGHT>
351.16345711

> <PUBCHEM_TOTAL_CHARGE>
0

> <PUBCHEM_HEAVY_ATOM_COUNT>
26

> <PUBCHEM_ATOM_DEF_STEREO_COUNT>
1

> <PUBCHEM_ATOM_UDEF_STEREO_COUNT>
0

> <PUBCHEM_BOND_DEF_STEREO_COUNT>
0

> <PUBCHEM_BOND_UDEF_STEREO_COUNT>
0

> <PUBCHEM_ISOTOPIC_ATOM_COUNT>
0

> <PUBCHEM_COMPONENT_COUNT>
1

> <PUBCHEM_CACTVS_TAUTO_COUNT>
-1

> <PUBCHEM_COORDINATE_TYPE>
1
5
255

> <PUBCHEM_BONDANNOTATIONS>
12  13  8
13  14  8
14  15  8
14  16  8
15  17  8
16  18  8
17  19  8
18  19  8
2  12  8
2  15  8
21  22  8
21  23  8
22  24  8
23  25  8
24  26  8
25  26  8
5  10  5

$$$$
