44393372
  -OEChem-09292322092D

 59 62  0     0  0  0  0  0  0999 V2000
    2.0000    3.0981    0.0000 I   0  0  0  0  0  0  0  0  0  0  0  0
    5.5443    1.2933    0.0000 S   0  0  0  0  0  0  0  0  0  0  0  0
   14.6279   -2.2320    0.0000 O   0  0  0  0  0  0  0  0  0  0  0  0
    7.6279    2.9641    0.0000 O   0  0  0  0  0  0  0  0  0  0  0  0
   11.6279   -0.5000    0.0000 N   0  0  0  0  0  0  0  0  0  0  0  0
   13.6279   -0.5000    0.0000 N   0  0  0  0  0  0  0  0  0  0  0  0
    7.6279    1.2320    0.0000 N   0  0  0  0  0  0  0  0  0  0  0  0
   12.1279    0.3660    0.0000 C   0  0  0  0  0  0  0  0  0  0  0  0
   12.1279   -1.3660    0.0000 C   0  0  0  0  0  0  0  0  0  0  0  0
   13.1279    0.3660    0.0000 C   0  0  0  0  0  0  0  0  0  0  0  0
   13.1279   -1.3660    0.0000 C   0  0  0  0  0  0  0  0  0  0  0  0
   10.6279   -0.5000    0.0000 C   0  0  0  0  0  0  0  0  0  0  0  0
   10.1279    0.3660    0.0000 C   0  0  0  0  0  0  0  0  0  0  0  0
   14.6279   -0.5000    0.0000 C   0  0  0  0  0  0  0  0  0  0  0  0
    9.1279    0.3660    0.0000 C   0  0  0  0  0  0  0  0  0  0  0  0
    8.6279    1.2320    0.0000 C   0  0  0  0  0  0  0  0  0  0  0  0
   15.1279   -1.3660    0.0000 C   0  0  0  0  0  0  0  0  0  0  0  0
   15.1279    0.3660    0.0000 C   0  0  0  0  0  0  0  0  0  0  0  0
   16.1279   -1.3660    0.0000 C   0  0  0  0  0  0  0  0  0  0  0  0
   16.1279    0.3660    0.0000 C   0  0  0  0  0  0  0  0  0  0  0  0
   16.6279   -0.5000    0.0000 C   0  0  0  0  0  0  0  0  0  0  0  0
    7.1279    2.0981    0.0000 C   0  0  0  0  0  0  0  0  0  0  0  0
    6.1279    2.0981    0.0000 C   0  0  0  0  0  0  0  0  0  0  0  0
   15.1279   -3.0981    0.0000 C   0  0  0  0  0  0  0  0  0  0  0  0
    5.5443    2.9028    0.0000 C   0  0  0  0  0  0  0  0  0  0  0  0
    4.5981    2.5981    0.0000 C   0  0  0  0  0  0  0  0  0  0  0  0
    4.5981    1.5981    0.0000 C   0  0  0  0  0  0  0  0  0  0  0  0
    3.7320    3.0981    0.0000 C   0  0  0  0  0  0  0  0  0  0  0  0
    3.7320    1.0981    0.0000 C   0  0  0  0  0  0  0  0  0  0  0  0
    2.8660    2.5981    0.0000 C   0  0  0  0  0  0  0  0  0  0  0  0
    2.8660    1.5981    0.0000 C   0  0  0  0  0  0  0  0  0  0  0  0
   12.2356    0.9766    0.0000 H   0  0  0  0  0  0  0  0  0  0  0  0
   11.5453    0.5781    0.0000 H   0  0  0  0  0  0  0  0  0  0  0  0
   11.5453   -1.5781    0.0000 H   0  0  0  0  0  0  0  0  0  0  0  0
   12.2356   -1.9766    0.0000 H   0  0  0  0  0  0  0  0  0  0  0  0
   13.7105    0.5781    0.0000 H   0  0  0  0  0  0  0  0  0  0  0  0
   13.0202    0.9766    0.0000 H   0  0  0  0  0  0  0  0  0  0  0  0
   13.0202   -1.9766    0.0000 H   0  0  0  0  0  0  0  0  0  0  0  0
   13.7105   -1.5781    0.0000 H   0  0  0  0  0  0  0  0  0  0  0  0
   10.0453   -0.7121    0.0000 H   0  0  0  0  0  0  0  0  0  0  0  0
   10.7356   -1.1106    0.0000 H   0  0  0  0  0  0  0  0  0  0  0  0
   10.7105    0.5781    0.0000 H   0  0  0  0  0  0  0  0  0  0  0  0
   10.0202    0.9766    0.0000 H   0  0  0  0  0  0  0  0  0  0  0  0
    8.5453    0.1540    0.0000 H   0  0  0  0  0  0  0  0  0  0  0  0
    9.2356   -0.2446    0.0000 H   0  0  0  0  0  0  0  0  0  0  0  0
    9.2105    1.4441    0.0000 H   0  0  0  0  0  0  0  0  0  0  0  0
    8.5202    1.8426    0.0000 H   0  0  0  0  0  0  0  0  0  0  0  0
   14.8179    0.9030    0.0000 H   0  0  0  0  0  0  0  0  0  0  0  0
    7.3179    0.6951    0.0000 H   0  0  0  0  0  0  0  0  0  0  0  0
   16.4379   -1.9030    0.0000 H   0  0  0  0  0  0  0  0  0  0  0  0
   16.4379    0.9030    0.0000 H   0  0  0  0  0  0  0  0  0  0  0  0
   17.2479   -0.5000    0.0000 H   0  0  0  0  0  0  0  0  0  0  0  0
   14.5910   -3.4081    0.0000 H   0  0  0  0  0  0  0  0  0  0  0  0
   15.4379   -3.6350    0.0000 H   0  0  0  0  0  0  0  0  0  0  0  0
   15.6648   -2.7881    0.0000 H   0  0  0  0  0  0  0  0  0  0  0  0
    5.7369    3.4921    0.0000 H   0  0  0  0  0  0  0  0  0  0  0  0
    3.7320    3.7181    0.0000 H   0  0  0  0  0  0  0  0  0  0  0  0
    3.7320    0.4781    0.0000 H   0  0  0  0  0  0  0  0  0  0  0  0
    2.3291    1.2881    0.0000 H   0  0  0  0  0  0  0  0  0  0  0  0
  1 30  1  0  0  0  0
  2 23  1  0  0  0  0
  2 27  1  0  0  0  0
  3 17  1  0  0  0  0
  3 24  1  0  0  0  0
  4 22  2  0  0  0  0
  5  8  1  0  0  0  0
  5  9  1  0  0  0  0
  5 12  1  0  0  0  0
  6 10  1  0  0  0  0
  6 11  1  0  0  0  0
  6 14  1  0  0  0  0
  7 16  1  0  0  0  0
  7 22  1  0  0  0  0
  7 49  1  0  0  0  0
  8 10  1  0  0  0  0
  8 32  1  0  0  0  0
  8 33  1  0  0  0  0
  9 11  1  0  0  0  0
  9 34  1  0  0  0  0
  9 35  1  0  0  0  0
 10 36  1  0  0  0  0
 10 37  1  0  0  0  0
 11 38  1  0  0  0  0
 11 39  1  0  0  0  0
 12 13  1  0  0  0  0
 12 40  1  0  0  0  0
 12 41  1  0  0  0  0
 13 15  1  0  0  0  0
 13 42  1  0  0  0  0
 13 43  1  0  0  0  0
 14 17  1  0  0  0  0
 14 18  2  0  0  0  0
 15 16  1  0  0  0  0
 15 44  1  0  0  0  0
 15 45  1  0  0  0  0
 16 46  1  0  0  0  0
 16 47  1  0  0  0  0
 17 19  2  0  0  0  0
 18 20  1  0  0  0  0
 18 48  1  0  0  0  0
 19 21  1  0  0  0  0
 19 50  1  0  0  0  0
 20 21  2  0  0  0  0
 20 51  1  0  0  0  0
 21 52  1  0  0  0  0
 22 23  1  0  0  0  0
 23 25  2  0  0  0  0
 24 53  1  0  0  0  0
 24 54  1  0  0  0  0
 24 55  1  0  0  0  0
 25 26  1  0  0  0  0
 25 56  1  0  0  0  0
 26 27  2  0  0  0  0
 26 28  1  0  0  0  0
 27 29  1  0  0  0  0
 28 30  2  0  0  0  0
 28 57  1  0  0  0  0
 29 31  2  0  0  0  0
 29 58  1  0  0  0  0
 30 31  1  0  0  0  0
 31 59  1  0  0  0  0
M  END
> <PUBCHEM_COMPOUND_CID>
44393372

> <PUBCHEM_COMPOUND_CANONICALIZED>
1

> <PUBCHEM_CACTVS_COMPLEXITY>
575

> <PUBCHEM_CACTVS_HBOND_ACCEPTOR>
5

> <PUBCHEM_CACTVS_HBOND_DONOR>
1

> <PUBCHEM_CACTVS_ROTATABLE_BOND>
8

> <PUBCHEM_CACTVS_SUBSKEYS>
AAADceB7MABAAgAAAAAAAAAAAAAAASAAAAA8YIAAAAAAAEgB9AAAHgQwAAAADAzD2AYyx8PABAiMAiVSUACDCIAlKhBIiJkPbMgOZjLktZuVMShk1hH46YeYyICOAAAAAAAEEAAAAAAAAAggAAAAAAAAAA==

> <PUBCHEM_IUPAC_OPENEYE_NAME>
5-iodo-N-[4-[4-(2-methoxyphenyl)piperazin-1-yl]butyl]benzothiophene-2-carboxamide

> <PUBCHEM_IUPAC_CAS_NAME>
5-iodo-N-[4-[4-(2-methoxyphenyl)-1-piperazinyl]butyl]-1-benzothiophene-2-carboxamide

> <PUBCHEM_IUPAC_NAME_MARKUP>
5-iodo-<I>N</I>-[4-[4-(2-methoxyphenyl)piperazin-1-yl]butyl]-1-benzothiophene-2-carboxamide

> <PUBCHEM_IUPAC_NAME>
5-iodo-N-[4-[4-(2-methoxyphenyl)piperazin-1-yl]butyl]-1-benzothiophene-2-carboxamide

> <PUBCHEM_IUPAC_SYSTEMATIC_NAME>
5-iodanyl-N-[4-[4-(2-methoxyphenyl)piperazin-1-yl]butyl]-1-benzothiophene-2-carboxamide

> <PUBCHEM_IUPAC_TRADITIONAL_NAME>
5-iodo-N-[4-[4-(2-methoxyphenyl)piperazino]butyl]benzothiophene-2-carboxamide

> <PUBCHEM_IUPAC_INCHI>
InChI=1S/C24H28IN3O2S/c1-30-21-7-3-2-6-20(21)28-14-12-27(13-15-28)11-5-4-10-26-24(29)23-17-18-16-19(25)8-9-22(18)31-23/h2-3,6-9,16-17H,4-5,10-15H2,1H3,(H,26,29)

> <PUBCHEM_IUPAC_INCHIKEY>
YIUMSISCOUIOHZ-UHFFFAOYSA-N

> <PUBCHEM_XLOGP3_AA>
5.5

> <PUBCHEM_EXACT_MASS>
549.09470

> <PUBCHEM_MOLECULAR_FORMULA>
C24H28IN3O2S

> <PUBCHEM_MOLECULAR_WEIGHT>
549.5

> <PUBCHEM_OPENEYE_CAN_SMILES>
COC1=CC=CC=C1N2CCN(CC2)CCCCNC(=O)C3=CC4=C(S3)C=CC(=C4)I

> <PUBCHEM_OPENEYE_ISO_SMILES>
COC1=CC=CC=C1N2CCN(CC2)CCCCNC(=O)C3=CC4=C(S3)C=CC(=C4)I

> <PUBCHEM_CACTVS_TPSA>
73

> <PUBCHEM_MONOISOTOPIC_WEIGHT>
549.09470

> <PUBCHEM_TOTAL_CHARGE>
0

> <PUBCHEM_HEAVY_ATOM_COUNT>
31

> <PUBCHEM_ATOM_DEF_STEREO_COUNT>
0

> <PUBCHEM_ATOM_UDEF_STEREO_COUNT>
0

> <PUBCHEM_BOND_DEF_STEREO_COUNT>
0

> <PUBCHEM_BOND_UDEF_STEREO_COUNT>
0

> <PUBCHEM_ISOTOPIC_ATOM_COUNT>
0

> <PUBCHEM_COMPONENT_COUNT>
1

> <PUBCHEM_CACTVS_TAUTO_COUNT>
-1

> <PUBCHEM_COORDINATE_TYPE>
1
5
255

> <PUBCHEM_BONDANNOTATIONS>
14  17  8
14  18  8
17  19  8
18  20  8
19  21  8
2  23  8
2  27  8
20  21  8
23  25  8
25  26  8
26  27  8
26  28  8
27  29  8
28  30  8
29  31  8
30  31  8

$$$$
