56594533
  -OEChem-09292322482D

 47 50  0     1  0  0  0  0  0999 V2000
    5.5321    1.6610    0.0000 N   0  0  3  0  0  0  0  0  0  0  0  0
    3.9290   -0.5061    0.0000 N   0  0  0  0  0  0  0  0  0  0  0  0
    6.3981    1.1610    0.0000 C   0  0  1  0  0  0  0  0  0  0  0  0
    6.3981    0.1610    0.0000 C   0  0  0  0  0  0  0  0  0  0  0  0
    5.5321   -0.3390    0.0000 C   0  0  0  0  0  0  0  0  0  0  0  0
    4.6660    0.1610    0.0000 C   0  0  0  0  0  0  0  0  0  0  0  0
    5.5321    2.6610    0.0000 C   0  0  0  0  0  0  0  0  0  0  0  0
    4.6660    1.1610    0.0000 C   0  0  0  0  0  0  0  0  0  0  0  0
    5.3229   -1.3108    0.0000 C   0  0  0  0  0  0  0  0  0  0  0  0
    4.6660    3.1610    0.0000 C   0  0  0  0  0  0  0  0  0  0  0  0
    3.8000    1.6610    0.0000 C   0  0  0  0  0  0  0  0  0  0  0  0
    4.3341   -1.4138    0.0000 C   0  0  0  0  0  0  0  0  0  0  0  0
    3.8000    2.6610    0.0000 C   0  0  0  0  0  0  0  0  0  0  0  0
    7.2641    1.6610    0.0000 C   0  0  0  0  0  0  0  0  0  0  0  0
    4.6660    2.1611    0.0000 C   0  0  0  0  0  0  0  0  0  0  0  0
    5.9436   -2.1396    0.0000 C   0  0  0  0  0  0  0  0  0  0  0  0
    3.8976   -2.3528    0.0000 C   0  0  0  0  0  0  0  0  0  0  0  0
    2.9061    1.1264    0.0000 C   0  0  0  0  0  0  0  0  0  0  0  0
    2.9061    3.1957    0.0000 C   0  0  0  0  0  0  0  0  0  0  0  0
    5.5289   -3.0884    0.0000 C   0  0  0  0  0  0  0  0  0  0  0  0
    4.4991   -3.1957    0.0000 C   0  0  0  0  0  0  0  0  0  0  0  0
    2.0000    1.6402    0.0000 C   0  0  0  0  0  0  0  0  0  0  0  0
    2.0000    2.6818    0.0000 C   0  0  0  0  0  0  0  0  0  0  0  0
    6.3981    1.7810    0.0000 H   0  0  0  0  0  0  0  0  0  0  0  0
    6.6101   -0.4216    0.0000 H   0  0  0  0  0  0  0  0  0  0  0  0
    7.0087    0.2687    0.0000 H   0  0  0  0  0  0  0  0  0  0  0  0
    6.1426    2.5534    0.0000 H   0  0  0  0  0  0  0  0  0  0  0  0
    5.7441    3.2436    0.0000 H   0  0  0  0  0  0  0  0  0  0  0  0
    5.2766    1.0534    0.0000 H   0  0  0  0  0  0  0  0  0  0  0  0
    4.8781    1.7436    0.0000 H   0  0  0  0  0  0  0  0  0  0  0  0
    5.0646    3.6360    0.0000 H   0  0  0  0  0  0  0  0  0  0  0  0
    4.2675    3.6360    0.0000 H   0  0  0  0  0  0  0  0  0  0  0  0
    7.5741    1.1241    0.0000 H   0  0  0  0  0  0  0  0  0  0  0  0
    7.8010    1.9710    0.0000 H   0  0  0  0  0  0  0  0  0  0  0  0
    6.9541    2.1980    0.0000 H   0  0  0  0  0  0  0  0  0  0  0  0
    3.3223   -0.3782    0.0000 H   0  0  0  0  0  0  0  0  0  0  0  0
    4.9761    2.6980    0.0000 H   0  0  0  0  0  0  0  0  0  0  0  0
    4.1291    2.4711    0.0000 H   0  0  0  0  0  0  0  0  0  0  0  0
    4.3560    1.6241    0.0000 H   0  0  0  0  0  0  0  0  0  0  0  0
    6.5595   -2.0682    0.0000 H   0  0  0  0  0  0  0  0  0  0  0  0
    3.2803   -2.4099    0.0000 H   0  0  0  0  0  0  0  0  0  0  0  0
    2.9132    0.5064    0.0000 H   0  0  0  0  0  0  0  0  0  0  0  0
    2.9132    3.8156    0.0000 H   0  0  0  0  0  0  0  0  0  0  0  0
    5.8949   -3.5888    0.0000 H   0  0  0  0  0  0  0  0  0  0  0  0
    4.2442   -3.7609    0.0000 H   0  0  0  0  0  0  0  0  0  0  0  0
    1.4643    1.3282    0.0000 H   0  0  0  0  0  0  0  0  0  0  0  0
    1.4643    2.9939    0.0000 H   0  0  0  0  0  0  0  0  0  0  0  0
  1  3  1  0  0  0  0
  1  7  1  0  0  0  0
  1 15  1  0  0  0  0
  2  6  1  0  0  0  0
  2 12  1  0  0  0  0
  2 36  1  0  0  0  0
  3  4  1  0  0  0  0
  3 14  1  6  0  0  0
  3 24  1  0  0  0  0
  4  5  1  0  0  0  0
  4 25  1  0  0  0  0
  4 26  1  0  0  0  0
  5  6  2  0  0  0  0
  5  9  1  0  0  0  0
  6  8  1  0  0  0  0
  7 10  1  0  0  0  0
  7 27  1  0  0  0  0
  7 28  1  0  0  0  0
  8 11  1  0  0  0  0
  8 29  1  0  0  0  0
  8 30  1  0  0  0  0
  9 12  1  0  0  0  0
  9 16  2  0  0  0  0
 10 13  1  0  0  0  0
 10 31  1  0  0  0  0
 10 32  1  0  0  0  0
 11 13  1  0  0  0  0
 11 18  2  0  0  0  0
 12 17  2  0  0  0  0
 13 19  2  0  0  0  0
 14 33  1  0  0  0  0
 14 34  1  0  0  0  0
 14 35  1  0  0  0  0
 15 37  1  0  0  0  0
 15 38  1  0  0  0  0
 15 39  1  0  0  0  0
 16 20  1  0  0  0  0
 16 40  1  0  0  0  0
 17 21  1  0  0  0  0
 17 41  1  0  0  0  0
 18 22  1  0  0  0  0
 18 42  1  0  0  0  0
 19 23  1  0  0  0  0
 19 43  1  0  0  0  0
 20 21  2  0  0  0  0
 20 44  1  0  0  0  0
 21 45  1  0  0  0  0
 22 23  2  0  0  0  0
 22 46  1  0  0  0  0
 23 47  1  0  0  0  0
M  END
> <PUBCHEM_COMPOUND_CID>
56594533

> <PUBCHEM_COMPOUND_CANONICALIZED>
1

> <PUBCHEM_CACTVS_COMPLEXITY>
395

> <PUBCHEM_CACTVS_HBOND_ACCEPTOR>
1

> <PUBCHEM_CACTVS_HBOND_DONOR>
1

> <PUBCHEM_CACTVS_ROTATABLE_BOND>
0

> <PUBCHEM_CACTVS_SUBSKEYS>
AAADceB7AAAAAAAAAAAAAAAAAAAAAWAAAAAwYAAAAAAAAFix9AAAHAAQAAAADCjBHgQywPPJkACgAyRiRACCgCAhAiAImSA4ZJgIIOLAkZGEIAhgkADIyAcQgMAOgAAAAAASAAAAAAAAACQAAAAAAAAAAA==

> <PUBCHEM_IUPAC_OPENEYE_NAME>
(12R)-11,12-dimethyl-11,21-diazatetracyclo[12.7.0.03,8.015,20]henicosa-1(14),3,5,7,15,17,19-heptaene

> <PUBCHEM_IUPAC_CAS_NAME>
(12R)-11,12-dimethyl-11,21-diazatetracyclo[12.7.0.03,8.015,20]heneicosa-1(14),3,5,7,15,17,19-heptaene

> <PUBCHEM_IUPAC_NAME_MARKUP>
(12<I>R</I>)-11,12-dimethyl-11,21-diazatetracyclo[12.7.0.0<SUP>3,8</SUP>.0<SUP>15,20</SUP>]henicosa-1(14),3,5,7,15,17,19-heptaene

> <PUBCHEM_IUPAC_NAME>
(12R)-11,12-dimethyl-11,21-diazatetracyclo[12.7.0.03,8.015,20]henicosa-1(14),3,5,7,15,17,19-heptaene

> <PUBCHEM_IUPAC_SYSTEMATIC_NAME>
(12R)-11,12-dimethyl-11,21-diazatetracyclo[12.7.0.03,8.015,20]henicosa-1(14),3,5,7,15,17,19-heptaene

> <PUBCHEM_IUPAC_TRADITIONAL_NAME>
(12R)-11,12-dimethyl-11,21-diazatetracyclo[12.7.0.03,8.015,20]heneicosa-1(14),3,5,7,15,17,19-heptaene

> <PUBCHEM_IUPAC_INCHI>
InChI=1S/C21H24N2/c1-15-13-19-18-9-5-6-10-20(18)22-21(19)14-17-8-4-3-7-16(17)11-12-23(15)2/h3-10,15,22H,11-14H2,1-2H3/t15-/m1/s1

> <PUBCHEM_IUPAC_INCHIKEY>
WQPRXYGVHKQNOH-OAHLLOKOSA-N

> <PUBCHEM_XLOGP3_AA>
4.8

> <PUBCHEM_EXACT_MASS>
304.193948774

> <PUBCHEM_MOLECULAR_FORMULA>
C21H24N2

> <PUBCHEM_MOLECULAR_WEIGHT>
304.4

> <PUBCHEM_OPENEYE_CAN_SMILES>
CC1CC2=C(CC3=CC=CC=C3CCN1C)NC4=CC=CC=C24

> <PUBCHEM_OPENEYE_ISO_SMILES>
C[C@@H]1CC2=C(CC3=CC=CC=C3CCN1C)NC4=CC=CC=C24

> <PUBCHEM_CACTVS_TPSA>
19

> <PUBCHEM_MONOISOTOPIC_WEIGHT>
304.193948774

> <PUBCHEM_TOTAL_CHARGE>
0

> <PUBCHEM_HEAVY_ATOM_COUNT>
23

> <PUBCHEM_ATOM_DEF_STEREO_COUNT>
1

> <PUBCHEM_ATOM_UDEF_STEREO_COUNT>
0

> <PUBCHEM_BOND_DEF_STEREO_COUNT>
0

> <PUBCHEM_BOND_UDEF_STEREO_COUNT>
0

> <PUBCHEM_ISOTOPIC_ATOM_COUNT>
0

> <PUBCHEM_COMPONENT_COUNT>
1

> <PUBCHEM_CACTVS_TAUTO_COUNT>
-1

> <PUBCHEM_COORDINATE_TYPE>
1
5
255

> <PUBCHEM_BONDANNOTATIONS>
11  13  8
11  18  8
12  17  8
13  19  8
16  20  8
17  21  8
18  22  8
19  23  8
2  12  8
2  6  8
20  21  8
22  23  8
3  14  6
5  6  8
5  9  8
9  12  8
9  16  8

$$$$
