44415686
  -OEChem-09292322282D

 59 64  0     0  0  0  0  0  0999 V2000
    2.0000    1.2172    0.0000 Cl  0  0  0  0  0  0  0  0  0  0  0  0
    9.6749    1.2172    0.0000 Cl  0  0  0  0  0  0  0  0  0  0  0  0
    8.3064   -4.7769    0.0000 O   0  0  0  0  0  0  0  0  0  0  0  0
    6.9126   -5.5816    0.0000 O   0  0  0  0  0  0  0  0  0  0  0  0
    7.5695   -1.1098    0.0000 O   0  0  0  0  0  0  0  0  0  0  0  0
    4.9036    2.9818    0.0000 N   0  0  0  0  0  0  0  0  0  0  0  0
    4.0358    4.7837    0.0000 N   0  0  0  0  0  0  0  0  0  0  0  0
    5.8374   -0.1098    0.0000 N   0  0  0  0  0  0  0  0  0  0  0  0
    6.3374    2.0808    0.0000 N   0  0  0  0  0  0  0  0  0  0  0  0
    5.8374   -1.1098    0.0000 N   0  0  0  0  0  0  0  0  0  0  0  0
    3.9064    3.0565    0.0000 C   0  0  0  0  0  0  0  0  0  0  0  0
    5.4669    3.8080    0.0000 C   0  0  0  0  0  0  0  0  0  0  0  0
    3.4725    3.9575    0.0000 C   0  0  0  0  0  0  0  0  0  0  0  0
    5.0330    4.7090    0.0000 C   0  0  0  0  0  0  0  0  0  0  0  0
    5.3374    2.0808    0.0000 C   0  0  0  0  0  0  0  0  0  0  0  0
    4.7139    1.2990    0.0000 C   0  0  0  0  0  0  0  0  0  0  0  0
    3.6019    5.6847    0.0000 C   0  0  0  0  0  0  0  0  0  0  0  0
    4.9364    0.3241    0.0000 C   0  0  0  0  0  0  0  0  0  0  0  0
    6.7384    0.3241    0.0000 C   0  0  0  0  0  0  0  0  0  0  0  0
    6.9609    1.2990    0.0000 C   0  0  0  0  0  0  0  0  0  0  0  0
    3.7234    1.6213    0.0000 C   0  0  0  0  0  0  0  0  0  0  0  0
    4.1839   -0.3961    0.0000 C   0  0  0  0  0  0  0  0  0  0  0  0
    2.9544    0.9188    0.0000 C   0  0  0  0  0  0  0  0  0  0  0  0
    7.4909   -0.3961    0.0000 C   0  0  0  0  0  0  0  0  0  0  0  0
    7.9514    1.6213    0.0000 C   0  0  0  0  0  0  0  0  0  0  0  0
    3.1862   -0.0968    0.0000 C   0  0  0  0  0  0  0  0  0  0  0  0
    8.4886   -0.0968    0.0000 C   0  0  0  0  0  0  0  0  0  0  0  0
    8.7204    0.9187    0.0000 C   0  0  0  0  0  0  0  0  0  0  0  0
    6.7034   -1.6098    0.0000 C   0  0  0  0  0  0  0  0  0  0  0  0
    6.7034   -2.6098    0.0000 C   0  0  0  0  0  0  0  0  0  0  0  0
    7.5694   -3.1098    0.0000 C   0  0  0  0  0  0  0  0  0  0  0  0
    7.5694   -4.1098    0.0000 C   0  0  0  0  0  0  0  0  0  0  0  0
    5.8374   -3.1098    0.0000 C   0  0  0  0  0  0  0  0  0  0  0  0
    6.7034   -4.6098    0.0000 C   0  0  0  0  0  0  0  0  0  0  0  0
    5.8374   -4.1098    0.0000 C   0  0  0  0  0  0  0  0  0  0  0  0
    7.9013   -5.6847    0.0000 C   0  0  0  0  0  0  0  0  0  0  0  0
    3.3095    2.8886    0.0000 H   0  0  0  0  0  0  0  0  0  0  0  0
    3.9681    2.4396    0.0000 H   0  0  0  0  0  0  0  0  0  0  0  0
    5.9107    3.3751    0.0000 H   0  0  0  0  0  0  0  0  0  0  0  0
    5.9703    4.1700    0.0000 H   0  0  0  0  0  0  0  0  0  0  0  0
    3.0286    4.3904    0.0000 H   0  0  0  0  0  0  0  0  0  0  0  0
    2.9691    3.5956    0.0000 H   0  0  0  0  0  0  0  0  0  0  0  0
    5.6298    4.8769    0.0000 H   0  0  0  0  0  0  0  0  0  0  0  0
    4.9713    5.3259    0.0000 H   0  0  0  0  0  0  0  0  0  0  0  0
    4.1605    5.9537    0.0000 H   0  0  0  0  0  0  0  0  0  0  0  0
    3.3329    6.2433    0.0000 H   0  0  0  0  0  0  0  0  0  0  0  0
    3.0433    5.4157    0.0000 H   0  0  0  0  0  0  0  0  0  0  0  0
    3.5925    2.2274    0.0000 H   0  0  0  0  0  0  0  0  0  0  0  0
    4.3288   -0.9989    0.0000 H   0  0  0  0  0  0  0  0  0  0  0  0
    5.3005   -1.4198    0.0000 H   0  0  0  0  0  0  0  0  0  0  0  0
    7.3460   -0.9989    0.0000 H   0  0  0  0  0  0  0  0  0  0  0  0
    8.0824    2.2273    0.0000 H   0  0  0  0  0  0  0  0  0  0  0  0
    2.7333   -0.5202    0.0000 H   0  0  0  0  0  0  0  0  0  0  0  0
    8.9415   -0.5203    0.0000 H   0  0  0  0  0  0  0  0  0  0  0  0
    8.1064   -2.7998    0.0000 H   0  0  0  0  0  0  0  0  0  0  0  0
    5.3005   -2.7998    0.0000 H   0  0  0  0  0  0  0  0  0  0  0  0
    5.3004   -4.4198    0.0000 H   0  0  0  0  0  0  0  0  0  0  0  0
    7.7726   -6.2912    0.0000 H   0  0  0  0  0  0  0  0  0  0  0  0
    8.4909   -5.8765    0.0000 H   0  0  0  0  0  0  0  0  0  0  0  0
  1 23  1  0  0  0  0
  2 28  1  0  0  0  0
  3 32  1  0  0  0  0
  3 36  1  0  0  0  0
  4 34  1  0  0  0  0
  4 36  1  0  0  0  0
  5 29  2  0  0  0  0
  6 11  1  0  0  0  0
  6 12  1  0  0  0  0
  6 15  1  0  0  0  0
  7 13  1  0  0  0  0
  7 14  1  0  0  0  0
  7 17  1  0  0  0  0
  8 10  1  0  0  0  0
  8 18  1  0  0  0  0
  8 19  1  0  0  0  0
  9 15  2  0  0  0  0
  9 20  1  0  0  0  0
 10 29  1  0  0  0  0
 10 50  1  0  0  0  0
 11 13  1  0  0  0  0
 11 37  1  0  0  0  0
 11 38  1  0  0  0  0
 12 14  1  0  0  0  0
 12 39  1  0  0  0  0
 12 40  1  0  0  0  0
 13 41  1  0  0  0  0
 13 42  1  0  0  0  0
 14 43  1  0  0  0  0
 14 44  1  0  0  0  0
 15 16  1  0  0  0  0
 16 18  2  0  0  0  0
 16 21  1  0  0  0  0
 17 45  1  0  0  0  0
 17 46  1  0  0  0  0
 17 47  1  0  0  0  0
 18 22  1  0  0  0  0
 19 20  2  0  0  0  0
 19 24  1  0  0  0  0
 20 25  1  0  0  0  0
 21 23  2  0  0  0  0
 21 48  1  0  0  0  0
 22 26  2  0  0  0  0
 22 49  1  0  0  0  0
 23 26  1  0  0  0  0
 24 27  2  0  0  0  0
 24 51  1  0  0  0  0
 25 28  2  0  0  0  0
 25 52  1  0  0  0  0
 26 53  1  0  0  0  0
 27 28  1  0  0  0  0
 27 54  1  0  0  0  0
 29 30  1  0  0  0  0
 30 31  2  0  0  0  0
 30 33  1  0  0  0  0
 31 32  1  0  0  0  0
 31 55  1  0  0  0  0
 32 34  2  0  0  0  0
 33 35  2  0  0  0  0
 33 56  1  0  0  0  0
 34 35  1  0  0  0  0
 35 57  1  0  0  0  0
 36 58  1  0  0  0  0
 36 59  1  0  0  0  0
M  END
> <PUBCHEM_COMPOUND_CID>
44415686

> <PUBCHEM_COMPOUND_CANONICALIZED>
1

> <PUBCHEM_CACTVS_COMPLEXITY>
840

> <PUBCHEM_CACTVS_HBOND_ACCEPTOR>
6

> <PUBCHEM_CACTVS_HBOND_DONOR>
1

> <PUBCHEM_CACTVS_ROTATABLE_BOND>
3

> <PUBCHEM_CACTVS_SUBSKEYS>
AAADceB7sAAGAAAAAAAAAAAAAAAAASAAAAA8YMEABAAAAEgBUAAAHgIYAAAADA7BmCczzoNiBACoAidydACCDAElJwAbqAEu/tgdZvLF/5u0MSpkwBHO6Ye63BDOIABBIAICQCBAAIJABASAQAAAAAAAAA==

> <PUBCHEM_IUPAC_OPENEYE_NAME>
N-[3,8-dichloro-6-(4-methylpiperazin-1-yl)benzo[b][1,4]benzodiazepin-11-yl]-1,3-benzodioxole-5-carboxamide

> <PUBCHEM_IUPAC_CAS_NAME>
N-[3,8-dichloro-6-(4-methyl-1-piperazinyl)-11-benzo[b][1,4]benzodiazepinyl]-1,3-benzodioxole-5-carboxamide

> <PUBCHEM_IUPAC_NAME_MARKUP>
<I>N</I>-[3,8-dichloro-6-(4-methylpiperazin-1-yl)benzo[b][1,4]benzodiazepin-11-yl]-1,3-benzodioxole-5-carboxamide

> <PUBCHEM_IUPAC_NAME>
N-[3,8-dichloro-6-(4-methylpiperazin-1-yl)benzo[b][1,4]benzodiazepin-11-yl]-1,3-benzodioxole-5-carboxamide

> <PUBCHEM_IUPAC_SYSTEMATIC_NAME>
N-[3,8-bis(chloranyl)-6-(4-methylpiperazin-1-yl)benzo[b][1,4]benzodiazepin-11-yl]-1,3-benzodioxole-5-carboxamide

> <PUBCHEM_IUPAC_TRADITIONAL_NAME>
N-[3,8-dichloro-6-(4-methylpiperazino)benzo[b][1,4]benzodiazepin-11-yl]-piperonylamide

> <PUBCHEM_IUPAC_INCHI>
InChI=1S/C26H23Cl2N5O3/c1-31-8-10-32(11-9-31)25-19-13-17(27)3-5-21(19)33(22-6-4-18(28)14-20(22)29-25)30-26(34)16-2-7-23-24(12-16)36-15-35-23/h2-7,12-14H,8-11,15H2,1H3,(H,30,34)

> <PUBCHEM_IUPAC_INCHIKEY>
XHOOSVMDRHVDTE-UHFFFAOYSA-N

> <PUBCHEM_XLOGP3_AA>
4.8

> <PUBCHEM_EXACT_MASS>
523.1177950

> <PUBCHEM_MOLECULAR_FORMULA>
C26H23Cl2N5O3

> <PUBCHEM_MOLECULAR_WEIGHT>
524.4

> <PUBCHEM_OPENEYE_CAN_SMILES>
CN1CCN(CC1)C2=NC3=C(C=CC(=C3)Cl)N(C4=C2C=C(C=C4)Cl)NC(=O)C5=CC6=C(C=C5)OCO6

> <PUBCHEM_OPENEYE_ISO_SMILES>
CN1CCN(CC1)C2=NC3=C(C=CC(=C3)Cl)N(C4=C2C=C(C=C4)Cl)NC(=O)C5=CC6=C(C=C5)OCO6

> <PUBCHEM_CACTVS_TPSA>
69.6

> <PUBCHEM_MONOISOTOPIC_WEIGHT>
523.1177950

> <PUBCHEM_TOTAL_CHARGE>
0

> <PUBCHEM_HEAVY_ATOM_COUNT>
36

> <PUBCHEM_ATOM_DEF_STEREO_COUNT>
0

> <PUBCHEM_ATOM_UDEF_STEREO_COUNT>
0

> <PUBCHEM_BOND_DEF_STEREO_COUNT>
0

> <PUBCHEM_BOND_UDEF_STEREO_COUNT>
0

> <PUBCHEM_ISOTOPIC_ATOM_COUNT>
0

> <PUBCHEM_COMPONENT_COUNT>
1

> <PUBCHEM_CACTVS_TAUTO_COUNT>
-1

> <PUBCHEM_COORDINATE_TYPE>
1
5
255

> <PUBCHEM_BONDANNOTATIONS>
16  18  8
16  21  8
18  22  8
19  20  8
19  24  8
20  25  8
21  23  8
22  26  8
23  26  8
24  27  8
25  28  8
27  28  8
30  31  8
30  33  8
31  32  8
32  34  8
33  35  8
34  35  8

$$$$
