17756101
  -OEChem-09292322232D

 47 49  0     1  0  0  0  0  0999 V2000
    2.0038    2.1022    0.0000 O   0  0  0  0  0  0  0  0  0  0  0  0
    5.1559   -2.3089    0.0000 N   0  0  3  0  0  0  0  0  0  0  0  0
    6.1218   -2.5677    0.0000 C   0  0  0  0  0  0  0  0  0  0  0  0
    6.9878   -2.0677    0.0000 C   0  0  0  0  0  0  0  0  0  0  0  0
    4.6559   -1.4429    0.0000 C   0  0  0  0  0  0  0  0  0  0  0  0
    3.7898   -0.9429    0.0000 C   0  0  0  0  0  0  0  0  0  0  0  0
    7.2539   -0.9429    0.0000 C   0  0  0  0  0  0  0  0  0  0  0  0
    3.7898    0.0571    0.0000 C   0  0  0  0  0  0  0  0  0  0  0  0
    5.5219    0.0571    0.0000 C   0  0  0  0  0  0  0  0  0  0  0  0
    7.2539    0.0571    0.0000 C   0  0  0  0  0  0  0  0  0  0  0  0
    4.6559    0.5571    0.0000 C   0  0  0  0  0  0  0  0  0  0  0  0
    6.3879    0.5571    0.0000 C   0  0  0  0  0  0  0  0  0  0  0  0
    4.5471   -3.1022    0.0000 C   0  0  0  0  0  0  0  0  0  0  0  0
    2.8798    0.5640    0.0000 C   0  0  0  0  0  0  0  0  0  0  0  0
    4.6719    1.5986    0.0000 C   0  0  0  0  0  0  0  0  0  0  0  0
    8.1639    0.5640    0.0000 C   0  0  0  0  0  0  0  0  0  0  0  0
    6.3718    1.5986    0.0000 C   0  0  0  0  0  0  0  0  0  0  0  0
    2.8718    1.6056    0.0000 C   0  0  0  0  0  0  0  0  0  0  0  0
    3.7739    2.1264    0.0000 C   0  0  0  0  0  0  0  0  0  0  0  0
    8.1720    1.6056    0.0000 C   0  0  0  0  0  0  0  0  0  0  0  0
    7.2699    2.1264    0.0000 C   0  0  0  0  0  0  0  0  0  0  0  0
    2.0000    3.1022    0.0000 C   0  0  0  0  0  0  0  0  0  0  0  0
    5.8118   -3.1046    0.0000 H   0  0  0  0  0  0  0  0  0  0  0  0
    6.5602   -3.0061    0.0000 H   0  0  0  0  0  0  0  0  0  0  0  0
    7.1542   -2.6650    0.0000 H   0  0  0  0  0  0  0  0  0  0  0  0
    7.6077   -2.0555    0.0000 H   0  0  0  0  0  0  0  0  0  0  0  0
    5.2664   -1.3352    0.0000 H   0  0  0  0  0  0  0  0  0  0  0  0
    4.2175   -1.8813    0.0000 H   0  0  0  0  0  0  0  0  0  0  0  0
    3.1792   -0.8352    0.0000 H   0  0  0  0  0  0  0  0  0  0  0  0
    3.5778   -1.5255    0.0000 H   0  0  0  0  0  0  0  0  0  0  0  0
    7.7366   -1.3320    0.0000 H   0  0  0  0  0  0  0  0  0  0  0  0
    6.6381   -0.8710    0.0000 H   0  0  0  0  0  0  0  0  0  0  0  0
    5.1234   -0.4178    0.0000 H   0  0  0  0  0  0  0  0  0  0  0  0
    5.9204   -0.4178    0.0000 H   0  0  0  0  0  0  0  0  0  0  0  0
    4.0552   -2.7248    0.0000 H   0  0  0  0  0  0  0  0  0  0  0  0
    4.1697   -3.5941    0.0000 H   0  0  0  0  0  0  0  0  0  0  0  0
    5.0390   -3.4797    0.0000 H   0  0  0  0  0  0  0  0  0  0  0  0
    2.3465    0.2478    0.0000 H   0  0  0  0  0  0  0  0  0  0  0  0
    5.2124    1.9024    0.0000 H   0  0  0  0  0  0  0  0  0  0  0  0
    8.6972    0.2478    0.0000 H   0  0  0  0  0  0  0  0  0  0  0  0
    5.8314    1.9024    0.0000 H   0  0  0  0  0  0  0  0  0  0  0  0
    3.7763    2.7464    0.0000 H   0  0  0  0  0  0  0  0  0  0  0  0
    8.7101    1.9135    0.0000 H   0  0  0  0  0  0  0  0  0  0  0  0
    7.2675    2.7464    0.0000 H   0  0  0  0  0  0  0  0  0  0  0  0
    2.6200    3.1046    0.0000 H   0  0  0  0  0  0  0  0  0  0  0  0
    1.9976    3.7222    0.0000 H   0  0  0  0  0  0  0  0  0  0  0  0
    1.3800    3.0998    0.0000 H   0  0  0  0  0  0  0  0  0  0  0  0
  1 18  1  0  0  0  0
  1 22  1  0  0  0  0
  2  3  1  0  0  0  0
  2  5  1  0  0  0  0
  2 13  1  0  0  0  0
  3  4  1  0  0  0  0
  3 23  1  0  0  0  0
  3 24  1  0  0  0  0
  4  7  1  0  0  0  0
  4 25  1  0  0  0  0
  4 26  1  0  0  0  0
  5  6  1  0  0  0  0
  5 27  1  0  0  0  0
  5 28  1  0  0  0  0
  6  8  1  0  0  0  0
  6 29  1  0  0  0  0
  6 30  1  0  0  0  0
  7 10  1  0  0  0  0
  7 31  1  0  0  0  0
  7 32  1  0  0  0  0
  8 11  2  0  0  0  0
  8 14  1  0  0  0  0
  9 11  1  0  0  0  0
  9 12  1  0  0  0  0
  9 33  1  0  0  0  0
  9 34  1  0  0  0  0
 10 12  1  0  0  0  0
 10 16  2  0  0  0  0
 11 15  1  0  0  0  0
 12 17  2  0  0  0  0
 13 35  1  0  0  0  0
 13 36  1  0  0  0  0
 13 37  1  0  0  0  0
 14 18  2  0  0  0  0
 14 38  1  0  0  0  0
 15 19  2  0  0  0  0
 15 39  1  0  0  0  0
 16 20  1  0  0  0  0
 16 40  1  0  0  0  0
 17 21  1  0  0  0  0
 17 41  1  0  0  0  0
 18 19  1  0  0  0  0
 19 42  1  0  0  0  0
 20 21  2  0  0  0  0
 20 43  1  0  0  0  0
 21 44  1  0  0  0  0
 22 45  1  0  0  0  0
 22 46  1  0  0  0  0
 22 47  1  0  0  0  0
M  END
> <PUBCHEM_COMPOUND_CID>
17756101

> <PUBCHEM_COMPOUND_CANONICALIZED>
1

> <PUBCHEM_CACTVS_COMPLEXITY>
332

> <PUBCHEM_CACTVS_HBOND_ACCEPTOR>
2

> <PUBCHEM_CACTVS_HBOND_DONOR>
0

> <PUBCHEM_CACTVS_ROTATABLE_BOND>
1

> <PUBCHEM_CACTVS_SUBSKEYS>
AAADceB6IAAAAAAAAAAAAAAAAAAAAAAAAAAwYAAAAAAAAAABQAAAHgAAAAAADATBmAYyBoMABACAAiBCAAACCAAgIAAIiAAOCIgMJiKEsRuEMCAkwBGIqAeQ0PIOoAABAAAQAABAAAIAACAAAAAAAAAAAA==

> <PUBCHEM_IUPAC_OPENEYE_NAME>
6-methoxy-11-methyl-11-azatricyclo[13.4.0.03,8]nonadeca-1(19),3(8),4,6,15,17-hexaene

> <PUBCHEM_IUPAC_CAS_NAME>
6-methoxy-11-methyl-11-azatricyclo[13.4.0.03,8]nonadeca-1(19),3(8),4,6,15,17-hexaene

> <PUBCHEM_IUPAC_NAME_MARKUP>
6-methoxy-11-methyl-11-azatricyclo[13.4.0.0<SUP>3,8</SUP>]nonadeca-1(19),3(8),4,6,15,17-hexaene

> <PUBCHEM_IUPAC_NAME>
6-methoxy-11-methyl-11-azatricyclo[13.4.0.03,8]nonadeca-1(19),3(8),4,6,15,17-hexaene

> <PUBCHEM_IUPAC_SYSTEMATIC_NAME>
6-methoxy-11-methyl-11-azatricyclo[13.4.0.03,8]nonadeca-1(19),3(8),4,6,15,17-hexaene

> <PUBCHEM_IUPAC_TRADITIONAL_NAME>
6-methoxy-11-methyl-11-azatricyclo[13.4.0.03,8]nonadeca-1(19),3(8),4,6,15,17-hexaene

> <PUBCHEM_IUPAC_INCHI>
InChI=1S/C20H25NO/c1-21-12-5-8-16-6-3-4-7-17(16)14-18-9-10-20(22-2)15-19(18)11-13-21/h3-4,6-7,9-10,15H,5,8,11-14H2,1-2H3

> <PUBCHEM_IUPAC_INCHIKEY>
IBGVTRNZLWEIPT-UHFFFAOYSA-N

> <PUBCHEM_XLOGP3_AA>
4.5

> <PUBCHEM_EXACT_MASS>
295.193614421

> <PUBCHEM_MOLECULAR_FORMULA>
C20H25NO

> <PUBCHEM_MOLECULAR_WEIGHT>
295.4

> <PUBCHEM_OPENEYE_CAN_SMILES>
CN1CCCC2=CC=CC=C2CC3=C(CC1)C=C(C=C3)OC

> <PUBCHEM_OPENEYE_ISO_SMILES>
CN1CCCC2=CC=CC=C2CC3=C(CC1)C=C(C=C3)OC

> <PUBCHEM_CACTVS_TPSA>
12.5

> <PUBCHEM_MONOISOTOPIC_WEIGHT>
295.193614421

> <PUBCHEM_TOTAL_CHARGE>
0

> <PUBCHEM_HEAVY_ATOM_COUNT>
22

> <PUBCHEM_ATOM_DEF_STEREO_COUNT>
0

> <PUBCHEM_ATOM_UDEF_STEREO_COUNT>
0

> <PUBCHEM_BOND_DEF_STEREO_COUNT>
0

> <PUBCHEM_BOND_UDEF_STEREO_COUNT>
0

> <PUBCHEM_ISOTOPIC_ATOM_COUNT>
0

> <PUBCHEM_COMPONENT_COUNT>
1

> <PUBCHEM_CACTVS_TAUTO_COUNT>
-1

> <PUBCHEM_COORDINATE_TYPE>
1
5
255

> <PUBCHEM_BONDANNOTATIONS>
10  12  8
10  16  8
11  15  8
12  17  8
14  18  8
15  19  8
16  20  8
17  21  8
18  19  8
20  21  8
8  11  8
8  14  8

$$$$
