10257042
  -OEChem-09292322152D

 73 78  0     1  0  0  0  0  0999 V2000
    4.2241    6.9938    0.0000 Cl  0  0  0  0  0  0  0  0  0  0  0  0
    2.2440    7.2756    0.0000 Cl  0  0  0  0  0  0  0  0  0  0  0  0
    5.5206   -4.8815    0.0000 O   0  0  0  0  0  0  0  0  0  0  0  0
    4.4820    1.7086    0.0000 O   0  0  0  0  0  0  0  0  0  0  0  0
    8.5711   -1.4976    0.0000 N   0  0  0  0  0  0  0  0  0  0  0  0
    6.0891    2.3546    0.0000 N   0  0  0  0  0  0  0  0  0  0  0  0
    9.0649   -6.6862    0.0000 N   0  0  0  0  0  0  0  0  0  0  0  0
    9.7989   -1.5242    0.0000 C   0  0  2  0  0  0  0  0  0  0  0  0
   10.3993   -2.3239    0.0000 C   0  0  1  0  0  0  0  0  0  0  0  0
   11.0625   -0.7373    0.0000 C   0  0  0  0  0  0  0  0  0  0  0  0
   11.6629   -1.5369    0.0000 C   0  0  0  0  0  0  0  0  0  0  0  0
    8.7892   -3.3162    0.0000 C   0  0  0  0  0  0  0  0  0  0  0  0
   10.3271   -3.8189    0.0000 C   0  0  0  0  0  0  0  0  0  0  0  0
    9.3756   -4.1262    0.0000 C   0  0  0  0  0  0  0  0  0  0  0  0
    7.5811   -1.3567    0.0000 C   0  0  0  0  0  0  0  0  0  0  0  0
    7.2081   -0.4289    0.0000 C   0  0  0  0  0  0  0  0  0  0  0  0
    9.0649   -5.0768    0.0000 C   0  0  0  0  0  0  0  0  0  0  0  0
    6.2181   -0.2880    0.0000 C   0  0  0  0  0  0  0  0  0  0  0  0
    7.8251    0.3581    0.0000 C   0  0  0  0  0  0  0  0  0  0  0  0
    5.8451    0.6399    0.0000 C   0  0  0  0  0  0  0  0  0  0  0  0
    7.4521    1.2859    0.0000 C   0  0  0  0  0  0  0  0  0  0  0  0
    6.4621    1.4268    0.0000 C   0  0  0  0  0  0  0  0  0  0  0  0
    8.1187   -5.3815    0.0000 C   0  0  0  0  0  0  0  0  0  0  0  0
    9.6485   -5.8815    0.0000 C   0  0  0  0  0  0  0  0  0  0  0  0
    8.1187   -6.3815    0.0000 C   0  0  0  0  0  0  0  0  0  0  0  0
    7.2526   -4.8815    0.0000 C   0  0  0  0  0  0  0  0  0  0  0  0
    7.2526   -6.8815    0.0000 C   0  0  0  0  0  0  0  0  0  0  0  0
    6.3866   -5.3815    0.0000 C   0  0  0  0  0  0  0  0  0  0  0  0
    5.0991    2.4955    0.0000 C   0  0  0  0  0  0  0  0  0  0  0  0
    6.3866   -6.3815    0.0000 C   0  0  0  0  0  0  0  0  0  0  0  0
    4.7260    3.4234    0.0000 C   0  0  0  0  0  0  0  0  0  0  0  0
    3.7360    3.5642    0.0000 C   0  0  0  0  0  0  0  0  0  0  0  0
    3.3630    4.4921    0.0000 C   0  0  0  0  0  0  0  0  0  0  0  0
    3.9800    5.2790    0.0000 C   0  0  0  0  0  0  0  0  0  0  0  0
    2.3730    4.6330    0.0000 C   0  0  0  0  0  0  0  0  0  0  0  0
    3.6070    6.2068    0.0000 C   0  0  0  0  0  0  0  0  0  0  0  0
    2.0000    5.5608    0.0000 C   0  0  0  0  0  0  0  0  0  0  0  0
    2.6170    6.3477    0.0000 C   0  0  0  0  0  0  0  0  0  0  0  0
    9.2885   -0.8445    0.0000 H   0  0  0  0  0  0  0  0  0  0  0  0
   10.9097   -3.0036    0.0000 H   0  0  0  0  0  0  0  0  0  0  0  0
   11.5689   -0.3795    0.0000 H   0  0  0  0  0  0  0  0  0  0  0  0
   10.7196   -0.2207    0.0000 H   0  0  0  0  0  0  0  0  0  0  0  0
   12.0058   -2.0535    0.0000 H   0  0  0  0  0  0  0  0  0  0  0  0
   12.1693   -1.1792    0.0000 H   0  0  0  0  0  0  0  0  0  0  0  0
    8.2982   -2.9376    0.0000 H   0  0  0  0  0  0  0  0  0  0  0  0
    8.3442   -3.7480    0.0000 H   0  0  0  0  0  0  0  0  0  0  0  0
   10.4456   -4.4275    0.0000 H   0  0  0  0  0  0  0  0  0  0  0  0
   10.9455   -3.7743    0.0000 H   0  0  0  0  0  0  0  0  0  0  0  0
    9.8132   -4.5654    0.0000 H   0  0  0  0  0  0  0  0  0  0  0  0
    6.9744   -1.4845    0.0000 H   0  0  0  0  0  0  0  0  0  0  0  0
    7.6016   -1.9764    0.0000 H   0  0  0  0  0  0  0  0  0  0  0  0
    6.8255   -0.9168    0.0000 H   0  0  0  0  0  0  0  0  0  0  0  0
    5.6114   -0.4158    0.0000 H   0  0  0  0  0  0  0  0  0  0  0  0
    6.2386   -0.9076    0.0000 H   0  0  0  0  0  0  0  0  0  0  0  0
    8.2392   -0.1034    0.0000 H   0  0  0  0  0  0  0  0  0  0  0  0
    8.3515    0.6857    0.0000 H   0  0  0  0  0  0  0  0  0  0  0  0
    5.4310    1.1013    0.0000 H   0  0  0  0  0  0  0  0  0  0  0  0
    5.3187    0.3122    0.0000 H   0  0  0  0  0  0  0  0  0  0  0  0
    8.0588    1.4138    0.0000 H   0  0  0  0  0  0  0  0  0  0  0  0
    7.4315    1.9056    0.0000 H   0  0  0  0  0  0  0  0  0  0  0  0
    5.8483    1.5142    0.0000 H   0  0  0  0  0  0  0  0  0  0  0  0
   10.2685   -5.8815    0.0000 H   0  0  0  0  0  0  0  0  0  0  0  0
    6.4716    2.8425    0.0000 H   0  0  0  0  0  0  0  0  0  0  0  0
    9.2575   -7.2756    0.0000 H   0  0  0  0  0  0  0  0  0  0  0  0
    7.2526   -4.2615    0.0000 H   0  0  0  0  0  0  0  0  0  0  0  0
    7.2526   -7.5015    0.0000 H   0  0  0  0  0  0  0  0  0  0  0  0
    5.8497   -6.6915    0.0000 H   0  0  0  0  0  0  0  0  0  0  0  0
    5.1086    3.9113    0.0000 H   0  0  0  0  0  0  0  0  0  0  0  0
    4.9837   -5.1915    0.0000 H   0  0  0  0  0  0  0  0  0  0  0  0
    3.3535    3.0763    0.0000 H   0  0  0  0  0  0  0  0  0  0  0  0
    4.5939    5.1917    0.0000 H   0  0  0  0  0  0  0  0  0  0  0  0
    1.9904    4.1450    0.0000 H   0  0  0  0  0  0  0  0  0  0  0  0
    1.3862    5.6481    0.0000 H   0  0  0  0  0  0  0  0  0  0  0  0
  1 36  1  0  0  0  0
  2 38  1  0  0  0  0
  3 28  1  0  0  0  0
  3 69  1  0  0  0  0
  4 29  2  0  0  0  0
  5  8  1  0  0  0  0
  5  9  1  0  0  0  0
  5 15  1  0  0  0  0
  6 22  1  0  0  0  0
  6 29  1  0  0  0  0
  6 63  1  0  0  0  0
  7 24  1  0  0  0  0
  7 25  1  0  0  0  0
  7 64  1  0  0  0  0
  8 10  1  0  0  0  0
  8 12  1  0  0  0  0
  8 39  1  1  0  0  0
  9 11  1  0  0  0  0
  9 13  1  0  0  0  0
  9 40  1  6  0  0  0
 10 11  1  0  0  0  0
 10 41  1  0  0  0  0
 10 42  1  0  0  0  0
 11 43  1  0  0  0  0
 11 44  1  0  0  0  0
 12 14  1  0  0  0  0
 12 45  1  0  0  0  0
 12 46  1  0  0  0  0
 13 14  1  0  0  0  0
 13 47  1  0  0  0  0
 13 48  1  0  0  0  0
 14 17  1  0  0  0  0
 14 49  1  0  0  0  0
 15 16  1  0  0  0  0
 15 50  1  0  0  0  0
 15 51  1  0  0  0  0
 16 18  1  0  0  0  0
 16 19  1  0  0  0  0
 16 52  1  0  0  0  0
 17 23  1  0  0  0  0
 17 24  2  0  0  0  0
 18 20  1  0  0  0  0
 18 53  1  0  0  0  0
 18 54  1  0  0  0  0
 19 21  1  0  0  0  0
 19 55  1  0  0  0  0
 19 56  1  0  0  0  0
 20 22  1  0  0  0  0
 20 57  1  0  0  0  0
 20 58  1  0  0  0  0
 21 22  1  0  0  0  0
 21 59  1  0  0  0  0
 21 60  1  0  0  0  0
 22 61  1  0  0  0  0
 23 25  2  0  0  0  0
 23 26  1  0  0  0  0
 24 62  1  0  0  0  0
 25 27  1  0  0  0  0
 26 28  2  0  0  0  0
 26 65  1  0  0  0  0
 27 30  2  0  0  0  0
 27 66  1  0  0  0  0
 28 30  1  0  0  0  0
 29 31  1  0  0  0  0
 30 67  1  0  0  0  0
 31 32  2  0  0  0  0
 31 68  1  0  0  0  0
 32 33  1  0  0  0  0
 32 70  1  0  0  0  0
 33 34  2  0  0  0  0
 33 35  1  0  0  0  0
 34 36  1  0  0  0  0
 34 71  1  0  0  0  0
 35 37  2  0  0  0  0
 35 72  1  0  0  0  0
 36 38  2  0  0  0  0
 37 38  1  0  0  0  0
 37 73  1  0  0  0  0
M  END
> <PUBCHEM_COMPOUND_CID>
10257042

> <PUBCHEM_COMPOUND_CANONICALIZED>
1

> <PUBCHEM_CACTVS_COMPLEXITY>
835

> <PUBCHEM_CACTVS_HBOND_ACCEPTOR>
3

> <PUBCHEM_CACTVS_HBOND_DONOR>
3

> <PUBCHEM_CACTVS_ROTATABLE_BOND>
6

> <PUBCHEM_CACTVS_SUBSKEYS>
AAADcfB7MAAGAAAAAAAAAAAAAAAAAWLAAAA8YMEABgAAAFgB9AAAHgIQCAAADS7BniQ8xvPJkgCoAzV3VACCgCAxJyAI2+A+btgIJuLDk5OEcAhk1hHI2Yew0PIOhEABIAACAAQYgAJAAAQACAAAAAAAAA==

> <PUBCHEM_IUPAC_OPENEYE_NAME>
(E)-3-(3,4-dichlorophenyl)-N-[4-[[(1R,5S)-3-(5-hydroxy-1H-indol-3-yl)-8-azabicyclo[3.2.1]octan-8-yl]methyl]cyclohexyl]prop-2-enamide

> <PUBCHEM_IUPAC_CAS_NAME>
(E)-3-(3,4-dichlorophenyl)-N-[4-[[(1R,5S)-3-(5-hydroxy-1H-indol-3-yl)-8-azabicyclo[3.2.1]octan-8-yl]methyl]cyclohexyl]-2-propenamide

> <PUBCHEM_IUPAC_NAME_MARKUP>
(<I>E</I>)-3-(3,4-dichlorophenyl)-<I>N</I>-[4-[[(1<I>R</I>,5<I>S</I>)-3-(5-hydroxy-1<I>H</I>-indol-3-yl)-8-azabicyclo[3.2.1]octan-8-yl]methyl]cyclohexyl]prop-2-enamide

> <PUBCHEM_IUPAC_NAME>
(E)-3-(3,4-dichlorophenyl)-N-[4-[[(1R,5S)-3-(5-hydroxy-1H-indol-3-yl)-8-azabicyclo[3.2.1]octan-8-yl]methyl]cyclohexyl]prop-2-enamide

> <PUBCHEM_IUPAC_SYSTEMATIC_NAME>
(E)-3-(3,4-dichlorophenyl)-N-[4-[[(1R,5S)-3-(5-oxidanyl-1H-indol-3-yl)-8-azabicyclo[3.2.1]octan-8-yl]methyl]cyclohexyl]prop-2-enamide

> <PUBCHEM_IUPAC_TRADITIONAL_NAME>
(E)-3-(3,4-dichlorophenyl)-N-[4-[[(1R,5S)-3-(5-hydroxy-1H-indol-3-yl)-8-azabicyclo[3.2.1]octan-8-yl]methyl]cyclohexyl]acrylamide

> <PUBCHEM_IUPAC_INCHI>
InChI=1S/C31H35Cl2N3O2/c32-28-10-3-19(13-29(28)33)4-12-31(38)35-22-5-1-20(2-6-22)18-36-23-7-8-24(36)15-21(14-23)27-17-34-30-11-9-25(37)16-26(27)30/h3-4,9-13,16-17,20-24,34,37H,1-2,5-8,14-15,18H2,(H,35,38)/b12-4+/t20?,21?,22?,23-,24+

> <PUBCHEM_IUPAC_INCHIKEY>
DKMPNHJOVOVCMF-MHTYWTFYSA-N

> <PUBCHEM_XLOGP3_AA>
7.1

> <PUBCHEM_EXACT_MASS>
551.2106328

> <PUBCHEM_MOLECULAR_FORMULA>
C31H35Cl2N3O2

> <PUBCHEM_MOLECULAR_WEIGHT>
552.5

> <PUBCHEM_OPENEYE_CAN_SMILES>
C1CC(CCC1CN2C3CCC2CC(C3)C4=CNC5=C4C=C(C=C5)O)NC(=O)C=CC6=CC(=C(C=C6)Cl)Cl

> <PUBCHEM_OPENEYE_ISO_SMILES>
C1C[C@H]2CC(C[C@@H]1N2CC3CCC(CC3)NC(=O)/C=C/C4=CC(=C(C=C4)Cl)Cl)C5=CNC6=C5C=C(C=C6)O

> <PUBCHEM_CACTVS_TPSA>
68.4

> <PUBCHEM_MONOISOTOPIC_WEIGHT>
551.2106328

> <PUBCHEM_TOTAL_CHARGE>
0

> <PUBCHEM_HEAVY_ATOM_COUNT>
38

> <PUBCHEM_ATOM_DEF_STEREO_COUNT>
2

> <PUBCHEM_ATOM_UDEF_STEREO_COUNT>
0

> <PUBCHEM_BOND_DEF_STEREO_COUNT>
1

> <PUBCHEM_BOND_UDEF_STEREO_COUNT>
0

> <PUBCHEM_ISOTOPIC_ATOM_COUNT>
0

> <PUBCHEM_COMPONENT_COUNT>
1

> <PUBCHEM_CACTVS_TAUTO_COUNT>
-1

> <PUBCHEM_COORDINATE_TYPE>
1
5
255

> <PUBCHEM_BONDANNOTATIONS>
17  23  8
17  24  8
23  25  8
23  26  8
25  27  8
26  28  8
27  30  8
28  30  8
33  34  8
33  35  8
34  36  8
35  37  8
36  38  8
37  38  8
7  24  8
7  25  8
8  39  5
9  40  6

$$$$
