66801625
  -OEChem-09292322392D

 62 66  0     1  0  0  0  0  0999 V2000
    2.3572    1.3776    0.0000 Cl  0  0  0  0  0  0  0  0  0  0  0  0
   11.7930    0.8653    0.0000 S   0  0  0  0  0  0  0  0  0  0  0  0
   11.2930    1.7313    0.0000 O   0  0  0  0  0  0  0  0  0  0  0  0
   12.2930   -0.0008    0.0000 O   0  0  0  0  0  0  0  0  0  0  0  0
    7.4629    0.3653    0.0000 N   0  0  3  0  0  0  0  0  0  0  0  0
    3.7899   -2.3327    0.0000 N   0  0  0  0  0  0  0  0  0  0  0  0
   10.9270    0.3653    0.0000 N   0  0  0  0  0  0  0  0  0  0  0  0
    7.4629   -0.6347    0.0000 C   0  0  0  0  0  0  0  0  0  0  0  0
    6.5968   -1.1347    0.0000 C   0  0  0  0  0  0  0  0  0  0  0  0
    5.7308   -0.6347    0.0000 C   0  0  0  0  0  0  0  0  0  0  0  0
    6.5968    0.8653    0.0000 C   0  0  0  0  0  0  0  0  0  0  0  0
    8.3289    0.8653    0.0000 C   0  0  0  0  0  0  0  0  0  0  0  0
    4.8648   -1.1347    0.0000 C   0  0  0  0  0  0  0  0  0  0  0  0
    5.7308    0.3653    0.0000 C   0  0  0  0  0  0  0  0  0  0  0  0
    9.1949    0.3653    0.0000 C   0  0  0  0  0  0  0  0  0  0  0  0
    3.9570   -0.7296    0.0000 C   0  0  0  0  0  0  0  0  0  0  0  0
    4.7617   -2.1235    0.0000 C   0  0  0  0  0  0  0  0  0  0  0  0
   10.0610    0.8653    0.0000 C   0  0  0  0  0  0  0  0  0  0  0  0
    3.2892   -1.4739    0.0000 C   0  0  0  0  0  0  0  0  0  0  0  0
    3.6464    0.2209    0.0000 C   0  0  0  0  0  0  0  0  0  0  0  0
    5.5060   -2.7913    0.0000 C   0  0  0  0  0  0  0  0  0  0  0  0
    2.3107   -1.2677    0.0000 C   0  0  0  0  0  0  0  0  0  0  0  0
    2.6678    0.4271    0.0000 C   0  0  0  0  0  0  0  0  0  0  0  0
    2.0000   -0.3172    0.0000 C   0  0  0  0  0  0  0  0  0  0  0  0
   12.6590    1.3653    0.0000 C   0  0  0  0  0  0  0  0  0  0  0  0
   13.5251    0.8653    0.0000 C   0  0  0  0  0  0  0  0  0  0  0  0
   12.6590    2.3653    0.0000 C   0  0  0  0  0  0  0  0  0  0  0  0
   14.3911    1.3653    0.0000 C   0  0  0  0  0  0  0  0  0  0  0  0
   14.3911    2.3653    0.0000 C   0  0  0  0  0  0  0  0  0  0  0  0
   13.5251    2.8653    0.0000 C   0  0  0  0  0  0  0  0  0  0  0  0
   15.2850    0.8306    0.0000 C   0  0  0  0  0  0  0  0  0  0  0  0
   15.2850    2.8999    0.0000 C   0  0  0  0  0  0  0  0  0  0  0  0
   16.1911    1.3444    0.0000 C   0  0  0  0  0  0  0  0  0  0  0  0
   16.1911    2.3861    0.0000 C   0  0  0  0  0  0  0  0  0  0  0  0
    7.6749   -1.2173    0.0000 H   0  0  0  0  0  0  0  0  0  0  0  0
    8.0734   -0.5271    0.0000 H   0  0  0  0  0  0  0  0  0  0  0  0
    6.1983   -1.6097    0.0000 H   0  0  0  0  0  0  0  0  0  0  0  0
    6.9954   -1.6097    0.0000 H   0  0  0  0  0  0  0  0  0  0  0  0
    6.9954    1.3402    0.0000 H   0  0  0  0  0  0  0  0  0  0  0  0
    6.1983    1.3402    0.0000 H   0  0  0  0  0  0  0  0  0  0  0  0
    8.7274    1.3402    0.0000 H   0  0  0  0  0  0  0  0  0  0  0  0
    7.9304    1.3402    0.0000 H   0  0  0  0  0  0  0  0  0  0  0  0
    5.1939    0.6753    0.0000 H   0  0  0  0  0  0  0  0  0  0  0  0
    8.7964   -0.1097    0.0000 H   0  0  0  0  0  0  0  0  0  0  0  0
    9.5934   -0.1097    0.0000 H   0  0  0  0  0  0  0  0  0  0  0  0
   10.4595    1.3402    0.0000 H   0  0  0  0  0  0  0  0  0  0  0  0
    9.6624    1.3402    0.0000 H   0  0  0  0  0  0  0  0  0  0  0  0
    3.5397   -2.8999    0.0000 H   0  0  0  0  0  0  0  0  0  0  0  0
    4.0604    0.6824    0.0000 H   0  0  0  0  0  0  0  0  0  0  0  0
    5.0920   -3.2528    0.0000 H   0  0  0  0  0  0  0  0  0  0  0  0
    5.9675   -3.2054    0.0000 H   0  0  0  0  0  0  0  0  0  0  0  0
    5.9201   -2.3298    0.0000 H   0  0  0  0  0  0  0  0  0  0  0  0
   10.9270   -0.2547    0.0000 H   0  0  0  0  0  0  0  0  0  0  0  0
    1.8966   -1.7292    0.0000 H   0  0  0  0  0  0  0  0  0  0  0  0
    1.3933   -0.1893    0.0000 H   0  0  0  0  0  0  0  0  0  0  0  0
   13.5251    0.2453    0.0000 H   0  0  0  0  0  0  0  0  0  0  0  0
   12.1221    2.6753    0.0000 H   0  0  0  0  0  0  0  0  0  0  0  0
   13.5251    3.4853    0.0000 H   0  0  0  0  0  0  0  0  0  0  0  0
   15.2779    0.2106    0.0000 H   0  0  0  0  0  0  0  0  0  0  0  0
   15.2779    3.5199    0.0000 H   0  0  0  0  0  0  0  0  0  0  0  0
   16.7268    1.0324    0.0000 H   0  0  0  0  0  0  0  0  0  0  0  0
   16.7268    2.6982    0.0000 H   0  0  0  0  0  0  0  0  0  0  0  0
  1 23  1  0  0  0  0
  2  3  2  0  0  0  0
  2  4  2  0  0  0  0
  2  7  1  0  0  0  0
  2 25  1  0  0  0  0
  5  8  1  0  0  0  0
  5 11  1  0  0  0  0
  5 12  1  0  0  0  0
  6 17  1  0  0  0  0
  6 19  1  0  0  0  0
  6 48  1  0  0  0  0
  7 18  1  0  0  0  0
  7 53  1  0  0  0  0
  8  9  1  0  0  0  0
  8 35  1  0  0  0  0
  8 36  1  0  0  0  0
  9 10  1  0  0  0  0
  9 37  1  0  0  0  0
  9 38  1  0  0  0  0
 10 13  1  0  0  0  0
 10 14  2  0  0  0  0
 11 14  1  0  0  0  0
 11 39  1  0  0  0  0
 11 40  1  0  0  0  0
 12 15  1  0  0  0  0
 12 41  1  0  0  0  0
 12 42  1  0  0  0  0
 13 16  1  0  0  0  0
 13 17  2  0  0  0  0
 14 43  1  0  0  0  0
 15 18  1  0  0  0  0
 15 44  1  0  0  0  0
 15 45  1  0  0  0  0
 16 19  2  0  0  0  0
 16 20  1  0  0  0  0
 17 21  1  0  0  0  0
 18 46  1  0  0  0  0
 18 47  1  0  0  0  0
 19 22  1  0  0  0  0
 20 23  2  0  0  0  0
 20 49  1  0  0  0  0
 21 50  1  0  0  0  0
 21 51  1  0  0  0  0
 21 52  1  0  0  0  0
 22 24  2  0  0  0  0
 22 54  1  0  0  0  0
 23 24  1  0  0  0  0
 24 55  1  0  0  0  0
 25 26  2  0  0  0  0
 25 27  1  0  0  0  0
 26 28  1  0  0  0  0
 26 56  1  0  0  0  0
 27 30  2  0  0  0  0
 27 57  1  0  0  0  0
 28 29  1  0  0  0  0
 28 31  2  0  0  0  0
 29 30  1  0  0  0  0
 29 32  2  0  0  0  0
 30 58  1  0  0  0  0
 31 33  1  0  0  0  0
 31 59  1  0  0  0  0
 32 34  1  0  0  0  0
 32 60  1  0  0  0  0
 33 34  2  0  0  0  0
 33 61  1  0  0  0  0
 34 62  1  0  0  0  0
M  END
> <PUBCHEM_COMPOUND_CID>
66801625

> <PUBCHEM_COMPOUND_CANONICALIZED>
1

> <PUBCHEM_CACTVS_COMPLEXITY>
828

> <PUBCHEM_CACTVS_HBOND_ACCEPTOR>
4

> <PUBCHEM_CACTVS_HBOND_DONOR>
2

> <PUBCHEM_CACTVS_ROTATABLE_BOND>
7

> <PUBCHEM_CACTVS_SUBSKEYS>
AAADceB7MABEAAAAAAAAAAAAAAAAAWAAAAAwYMEAAAAAAFjB9AAAHAYQQAAADArBXiQywfPJkAKgAyRiRHDCgDAhByAImbg4ZpgIIOLB05GEIAhgkADIyAcQgMAOkABAoAASAAAgAIFAACQAAAAAAAAAAA==

> <PUBCHEM_IUPAC_OPENEYE_NAME>
N-[3-[4-(5-chloro-2-methyl-1H-indol-3-yl)-3,6-dihydro-2H-pyridin-1-yl]propyl]naphthalene-2-sulfonamide

> <PUBCHEM_IUPAC_CAS_NAME>
N-[3-[4-(5-chloro-2-methyl-1H-indol-3-yl)-3,6-dihydro-2H-pyridin-1-yl]propyl]-2-naphthalenesulfonamide

> <PUBCHEM_IUPAC_NAME_MARKUP>
<I>N</I>-[3-[4-(5-chloro-2-methyl-1<I>H</I>-indol-3-yl)-3,6-dihydro-2<I>H</I>-pyridin-1-yl]propyl]naphthalene-2-sulfonamide

> <PUBCHEM_IUPAC_NAME>
N-[3-[4-(5-chloro-2-methyl-1H-indol-3-yl)-3,6-dihydro-2H-pyridin-1-yl]propyl]naphthalene-2-sulfonamide

> <PUBCHEM_IUPAC_SYSTEMATIC_NAME>
N-[3-[4-(5-chloranyl-2-methyl-1H-indol-3-yl)-3,6-dihydro-2H-pyridin-1-yl]propyl]naphthalene-2-sulfonamide

> <PUBCHEM_IUPAC_TRADITIONAL_NAME>
N-[3-[4-(5-chloro-2-methyl-1H-indol-3-yl)-3,6-dihydro-2H-pyridin-1-yl]propyl]naphthalene-2-sulfonamide

> <PUBCHEM_IUPAC_INCHI>
InChI=1S/C27H28ClN3O2S/c1-19-27(25-18-23(28)8-10-26(25)30-19)21-11-15-31(16-12-21)14-4-13-29-34(32,33)24-9-7-20-5-2-3-6-22(20)17-24/h2-3,5-11,17-18,29-30H,4,12-16H2,1H3

> <PUBCHEM_IUPAC_INCHIKEY>
PRHPYOCEQODHTD-UHFFFAOYSA-N

> <PUBCHEM_XLOGP3_AA>
5.6

> <PUBCHEM_EXACT_MASS>
493.1590760

> <PUBCHEM_MOLECULAR_FORMULA>
C27H28ClN3O2S

> <PUBCHEM_MOLECULAR_WEIGHT>
494.0

> <PUBCHEM_OPENEYE_CAN_SMILES>
CC1=C(C2=C(N1)C=CC(=C2)Cl)C3=CCN(CC3)CCCNS(=O)(=O)C4=CC5=CC=CC=C5C=C4

> <PUBCHEM_OPENEYE_ISO_SMILES>
CC1=C(C2=C(N1)C=CC(=C2)Cl)C3=CCN(CC3)CCCNS(=O)(=O)C4=CC5=CC=CC=C5C=C4

> <PUBCHEM_CACTVS_TPSA>
73.6

> <PUBCHEM_MONOISOTOPIC_WEIGHT>
493.1590760

> <PUBCHEM_TOTAL_CHARGE>
0

> <PUBCHEM_HEAVY_ATOM_COUNT>
34

> <PUBCHEM_ATOM_DEF_STEREO_COUNT>
0

> <PUBCHEM_ATOM_UDEF_STEREO_COUNT>
0

> <PUBCHEM_BOND_DEF_STEREO_COUNT>
0

> <PUBCHEM_BOND_UDEF_STEREO_COUNT>
0

> <PUBCHEM_ISOTOPIC_ATOM_COUNT>
0

> <PUBCHEM_COMPONENT_COUNT>
1

> <PUBCHEM_CACTVS_TAUTO_COUNT>
-1

> <PUBCHEM_COORDINATE_TYPE>
1
5
255

> <PUBCHEM_BONDANNOTATIONS>
13  16  8
13  17  8
16  19  8
16  20  8
19  22  8
20  23  8
22  24  8
23  24  8
25  26  8
25  27  8
26  28  8
27  30  8
28  29  8
28  31  8
29  30  8
29  32  8
31  33  8
32  34  8
33  34  8
6  17  8
6  19  8

$$$$
