44380816
  -OEChem-09292322222D

 48 50  0     1  0  0  0  0  0999 V2000
    6.3301   -4.1193    0.0000 Br  0  0  0  0  0  0  0  0  0  0  0  0
    3.7320   -0.6193    0.0000 O   0  0  0  0  0  0  0  0  0  0  0  0
    2.8660   -2.1193    0.0000 O   0  0  0  0  0  0  0  0  0  0  0  0
    7.4128    2.0831    0.0000 N   0  0  3  0  0  0  0  0  0  0  0  0
    5.4641   -0.6193    0.0000 N   0  0  0  0  0  0  0  0  0  0  0  0
    6.3301    0.8807    0.0000 C   0  0  2  0  0  0  0  0  0  0  0  0
    7.2437    0.4740    0.0000 C   0  0  0  0  0  0  0  0  0  0  0  0
    6.4347    1.8752    0.0000 C   0  0  0  0  0  0  0  0  0  0  0  0
    7.9128    1.2171    0.0000 C   0  0  0  0  0  0  0  0  0  0  0  0
    5.4641    0.3807    0.0000 C   0  0  0  0  0  0  0  0  0  0  0  0
    7.8195    2.9967    0.0000 C   0  0  0  0  0  0  0  0  0  0  0  0
    8.8141    3.1012    0.0000 C   0  0  0  0  0  0  0  0  0  0  0  0
    4.5981   -1.1193    0.0000 C   0  0  0  0  0  0  0  0  0  0  0  0
    9.2208    4.0148    0.0000 C   0  0  0  0  0  0  0  0  0  0  0  0
    9.4018    2.2922    0.0000 C   0  0  0  0  0  0  0  0  0  0  0  0
    4.5981   -2.1193    0.0000 C   0  0  0  0  0  0  0  0  0  0  0  0
   10.2153    4.1193    0.0000 C   0  0  0  0  0  0  0  0  0  0  0  0
   10.3964    2.3967    0.0000 C   0  0  0  0  0  0  0  0  0  0  0  0
   10.8031    3.3103    0.0000 C   0  0  0  0  0  0  0  0  0  0  0  0
    3.7320   -2.6193    0.0000 C   0  0  0  0  0  0  0  0  0  0  0  0
    5.4641   -2.6193    0.0000 C   0  0  0  0  0  0  0  0  0  0  0  0
    3.7320   -3.6193    0.0000 C   0  0  0  0  0  0  0  0  0  0  0  0
    5.4641   -3.6193    0.0000 C   0  0  0  0  0  0  0  0  0  0  0  0
    4.5981   -4.1193    0.0000 C   0  0  0  0  0  0  0  0  0  0  0  0
    2.0000   -2.6193    0.0000 C   0  0  0  0  0  0  0  0  0  0  0  0
    5.8102    1.2184    0.0000 H   0  0  0  0  0  0  0  0  0  0  0  0
    6.9337   -0.0630    0.0000 H   0  0  0  0  0  0  0  0  0  0  0  0
    7.7453    0.1095    0.0000 H   0  0  0  0  0  0  0  0  0  0  0  0
    6.3698    2.4918    0.0000 H   0  0  0  0  0  0  0  0  0  0  0  0
    5.8147    1.8752    0.0000 H   0  0  0  0  0  0  0  0  0  0  0  0
    8.3277    0.7564    0.0000 H   0  0  0  0  0  0  0  0  0  0  0  0
    8.4144    1.5815    0.0000 H   0  0  0  0  0  0  0  0  0  0  0  0
    5.2520    0.9633    0.0000 H   0  0  0  0  0  0  0  0  0  0  0  0
    4.8535    0.2730    0.0000 H   0  0  0  0  0  0  0  0  0  0  0  0
    7.8628    3.6152    0.0000 H   0  0  0  0  0  0  0  0  0  0  0  0
    7.2180    3.1467    0.0000 H   0  0  0  0  0  0  0  0  0  0  0  0
    6.0010   -0.9293    0.0000 H   0  0  0  0  0  0  0  0  0  0  0  0
    8.8564    4.5164    0.0000 H   0  0  0  0  0  0  0  0  0  0  0  0
    9.1497    1.7258    0.0000 H   0  0  0  0  0  0  0  0  0  0  0  0
   10.4675    4.6857    0.0000 H   0  0  0  0  0  0  0  0  0  0  0  0
   10.7608    1.8951    0.0000 H   0  0  0  0  0  0  0  0  0  0  0  0
   11.4197    3.3751    0.0000 H   0  0  0  0  0  0  0  0  0  0  0  0
    6.0010   -2.3093    0.0000 H   0  0  0  0  0  0  0  0  0  0  0  0
    3.1951   -3.9293    0.0000 H   0  0  0  0  0  0  0  0  0  0  0  0
    4.5981   -4.7393    0.0000 H   0  0  0  0  0  0  0  0  0  0  0  0
    1.6900   -2.0824    0.0000 H   0  0  0  0  0  0  0  0  0  0  0  0
    1.4631   -2.9293    0.0000 H   0  0  0  0  0  0  0  0  0  0  0  0
    2.3100   -3.1562    0.0000 H   0  0  0  0  0  0  0  0  0  0  0  0
  1 23  1  0  0  0  0
  2 13  2  0  0  0  0
  3 20  1  0  0  0  0
  3 25  1  0  0  0  0
  4  8  1  0  0  0  0
  4  9  1  0  0  0  0
  4 11  1  0  0  0  0
  5 10  1  0  0  0  0
  5 13  1  0  0  0  0
  5 37  1  0  0  0  0
  6  7  1  0  0  0  0
  6  8  1  0  0  0  0
  6 10  1  1  0  0  0
  6 26  1  0  0  0  0
  7  9  1  0  0  0  0
  7 27  1  0  0  0  0
  7 28  1  0  0  0  0
  8 29  1  0  0  0  0
  8 30  1  0  0  0  0
  9 31  1  0  0  0  0
  9 32  1  0  0  0  0
 10 33  1  0  0  0  0
 10 34  1  0  0  0  0
 11 12  1  0  0  0  0
 11 35  1  0  0  0  0
 11 36  1  0  0  0  0
 12 14  2  0  0  0  0
 12 15  1  0  0  0  0
 13 16  1  0  0  0  0
 14 17  1  0  0  0  0
 14 38  1  0  0  0  0
 15 18  2  0  0  0  0
 15 39  1  0  0  0  0
 16 20  2  0  0  0  0
 16 21  1  0  0  0  0
 17 19  2  0  0  0  0
 17 40  1  0  0  0  0
 18 19  1  0  0  0  0
 18 41  1  0  0  0  0
 19 42  1  0  0  0  0
 20 22  1  0  0  0  0
 21 23  2  0  0  0  0
 21 43  1  0  0  0  0
 22 24  2  0  0  0  0
 22 44  1  0  0  0  0
 23 24  1  0  0  0  0
 24 45  1  0  0  0  0
 25 46  1  0  0  0  0
 25 47  1  0  0  0  0
 25 48  1  0  0  0  0
M  END
> <PUBCHEM_COMPOUND_CID>
44380816

> <PUBCHEM_COMPOUND_CANONICALIZED>
1

> <PUBCHEM_CACTVS_COMPLEXITY>
428

> <PUBCHEM_CACTVS_HBOND_ACCEPTOR>
3

> <PUBCHEM_CACTVS_HBOND_DONOR>
1

> <PUBCHEM_CACTVS_ROTATABLE_BOND>
6

> <PUBCHEM_CACTVS_SUBSKEYS>
AAADceB7MAAAEAAAAAAAAAAAAAAAAWAAAAAwYAAAAAAAAAABQAAAHgBQAAABrQTBmAYyBoPABACIAiFSEACCCAAkIAQIiIEODOgMJjaE9RuEMWhm9hGIq5eYyCCOABAAEAAIAAAAIAAgABAAAAAAAAAAAA==

> <PUBCHEM_IUPAC_OPENEYE_NAME>
N-[[(3S)-1-benzylpyrrolidin-3-yl]methyl]-5-bromo-2-methoxy-benzamide

> <PUBCHEM_IUPAC_CAS_NAME>
5-bromo-2-methoxy-N-[[(3S)-1-(phenylmethyl)-3-pyrrolidinyl]methyl]benzamide

> <PUBCHEM_IUPAC_NAME_MARKUP>
<I>N</I>-[[(3<I>S</I>)-1-benzylpyrrolidin-3-yl]methyl]-5-bromo-2-methoxybenzamide

> <PUBCHEM_IUPAC_NAME>
N-[[(3S)-1-benzylpyrrolidin-3-yl]methyl]-5-bromo-2-methoxybenzamide

> <PUBCHEM_IUPAC_SYSTEMATIC_NAME>
5-bromanyl-2-methoxy-N-[[(3S)-1-(phenylmethyl)pyrrolidin-3-yl]methyl]benzamide

> <PUBCHEM_IUPAC_TRADITIONAL_NAME>
N-[[(3S)-1-benzylpyrrolidin-3-yl]methyl]-5-bromo-2-methoxy-benzamide

> <PUBCHEM_IUPAC_INCHI>
InChI=1S/C20H23BrN2O2/c1-25-19-8-7-17(21)11-18(19)20(24)22-12-16-9-10-23(14-16)13-15-5-3-2-4-6-15/h2-8,11,16H,9-10,12-14H2,1H3,(H,22,24)/t16-/m0/s1

> <PUBCHEM_IUPAC_INCHIKEY>
YBRBKCXISVCUJG-INIZCTEOSA-N

> <PUBCHEM_XLOGP3>
3.9

> <PUBCHEM_EXACT_MASS>
402.09429

> <PUBCHEM_MOLECULAR_FORMULA>
C20H23BrN2O2

> <PUBCHEM_MOLECULAR_WEIGHT>
403.3

> <PUBCHEM_OPENEYE_CAN_SMILES>
COC1=C(C=C(C=C1)Br)C(=O)NCC2CCN(C2)CC3=CC=CC=C3

> <PUBCHEM_OPENEYE_ISO_SMILES>
COC1=C(C=C(C=C1)Br)C(=O)NC[C@@H]2CCN(C2)CC3=CC=CC=C3

> <PUBCHEM_CACTVS_TPSA>
41.6

> <PUBCHEM_MONOISOTOPIC_WEIGHT>
402.09429

> <PUBCHEM_TOTAL_CHARGE>
0

> <PUBCHEM_HEAVY_ATOM_COUNT>
25

> <PUBCHEM_ATOM_DEF_STEREO_COUNT>
1

> <PUBCHEM_ATOM_UDEF_STEREO_COUNT>
0

> <PUBCHEM_BOND_DEF_STEREO_COUNT>
0

> <PUBCHEM_BOND_UDEF_STEREO_COUNT>
0

> <PUBCHEM_ISOTOPIC_ATOM_COUNT>
0

> <PUBCHEM_COMPONENT_COUNT>
1

> <PUBCHEM_CACTVS_TAUTO_COUNT>
-1

> <PUBCHEM_COORDINATE_TYPE>
1
5
255

> <PUBCHEM_BONDANNOTATIONS>
12  14  8
12  15  8
14  17  8
15  18  8
16  20  8
16  21  8
17  19  8
18  19  8
20  22  8
21  23  8
22  24  8
23  24  8
6  10  5

$$$$
