10978080
  -OEChem-09292322232D

 39 41  0     1  0  0  0  0  0999 V2000
    2.9061    0.5223    0.0000 O   0  0  0  0  0  0  0  0  0  0  0  0
    2.9061   -1.5470    0.0000 N   0  0  3  0  0  0  0  0  0  0  0  0
    5.5403    4.0569    0.0000 N   0  0  0  0  0  0  0  0  0  0  0  0
    3.8000   -1.0124    0.0000 C   0  0  1  0  0  0  0  0  0  0  0  0
    3.8000   -0.0124    0.0000 C   0  0  1  0  0  0  0  0  0  0  0  0
    4.6660   -1.5124    0.0000 C   0  0  0  0  0  0  0  0  0  0  0  0
    5.5321   -1.0124    0.0000 C   0  0  0  0  0  0  0  0  0  0  0  0
    4.6660    0.4876    0.0000 C   0  0  0  0  0  0  0  0  0  0  0  0
    2.0000   -1.0332    0.0000 C   0  0  0  0  0  0  0  0  0  0  0  0
    5.5321   -0.0124    0.0000 C   0  0  0  0  0  0  0  0  0  0  0  0
    2.0000    0.0084    0.0000 C   0  0  0  0  0  0  0  0  0  0  0  0
    2.9176   -2.5470    0.0000 C   0  0  0  0  0  0  0  0  0  0  0  0
    4.6500    1.5291    0.0000 C   0  0  0  0  0  0  0  0  0  0  0  0
    2.0574   -3.0569    0.0000 C   0  0  0  0  0  0  0  0  0  0  0  0
    6.4421    0.4945    0.0000 C   0  0  0  0  0  0  0  0  0  0  0  0
    5.5480    2.0569    0.0000 C   0  0  0  0  0  0  0  0  0  0  0  0
    6.4501    1.5361    0.0000 C   0  0  0  0  0  0  0  0  0  0  0  0
    2.0690   -4.0569    0.0000 C   0  0  0  0  0  0  0  0  0  0  0  0
    5.5442    3.0569    0.0000 C   0  0  0  0  0  0  0  0  0  0  0  0
    3.8066   -1.8623    0.0000 H   0  0  0  0  0  0  0  0  0  0  0  0
    3.8066    0.8376    0.0000 H   0  0  0  0  0  0  0  0  0  0  0  0
    4.2675   -1.9873    0.0000 H   0  0  0  0  0  0  0  0  0  0  0  0
    5.0646   -1.9873    0.0000 H   0  0  0  0  0  0  0  0  0  0  0  0
    5.7441   -1.5950    0.0000 H   0  0  0  0  0  0  0  0  0  0  0  0
    6.1426   -0.9047    0.0000 H   0  0  0  0  0  0  0  0  0  0  0  0
    1.3891   -0.9271    0.0000 H   0  0  0  0  0  0  0  0  0  0  0  0
    1.7909   -1.6169    0.0000 H   0  0  0  0  0  0  0  0  0  0  0  0
    3.1364   -3.1271    0.0000 H   0  0  0  0  0  0  0  0  0  0  0  0
    3.5269   -2.4322    0.0000 H   0  0  0  0  0  0  0  0  0  0  0  0
    1.7909    0.5921    0.0000 H   0  0  0  0  0  0  0  0  0  0  0  0
    1.3891   -0.0976    0.0000 H   0  0  0  0  0  0  0  0  0  0  0  0
    4.1095    1.8329    0.0000 H   0  0  0  0  0  0  0  0  0  0  0  0
    1.8387   -2.4768    0.0000 H   0  0  0  0  0  0  0  0  0  0  0  0
    1.4482   -3.1717    0.0000 H   0  0  0  0  0  0  0  0  0  0  0  0
    6.9754    0.1783    0.0000 H   0  0  0  0  0  0  0  0  0  0  0  0
    6.9882    1.8440    0.0000 H   0  0  0  0  0  0  0  0  0  0  0  0
    1.4490   -4.0640    0.0000 H   0  0  0  0  0  0  0  0  0  0  0  0
    2.0762   -4.6768    0.0000 H   0  0  0  0  0  0  0  0  0  0  0  0
    2.6890   -4.0497    0.0000 H   0  0  0  0  0  0  0  0  0  0  0  0
  1  5  1  0  0  0  0
  1 11  1  0  0  0  0
  2  4  1  0  0  0  0
  2  9  1  0  0  0  0
  2 12  1  0  0  0  0
  3 19  3  0  0  0  0
  4  5  1  0  0  0  0
  4  6  1  0  0  0  0
  4 20  1  6  0  0  0
  5  8  1  0  0  0  0
  5 21  1  1  0  0  0
  6  7  1  0  0  0  0
  6 22  1  0  0  0  0
  6 23  1  0  0  0  0
  7 10  1  0  0  0  0
  7 24  1  0  0  0  0
  7 25  1  0  0  0  0
  8 10  2  0  0  0  0
  8 13  1  0  0  0  0
  9 11  1  0  0  0  0
  9 26  1  0  0  0  0
  9 27  1  0  0  0  0
 10 15  1  0  0  0  0
 11 30  1  0  0  0  0
 11 31  1  0  0  0  0
 12 14  1  0  0  0  0
 12 28  1  0  0  0  0
 12 29  1  0  0  0  0
 13 16  2  0  0  0  0
 13 32  1  0  0  0  0
 14 18  1  0  0  0  0
 14 33  1  0  0  0  0
 14 34  1  0  0  0  0
 15 17  2  0  0  0  0
 15 35  1  0  0  0  0
 16 17  1  0  0  0  0
 16 19  1  0  0  0  0
 17 36  1  0  0  0  0
 18 37  1  0  0  0  0
 18 38  1  0  0  0  0
 18 39  1  0  0  0  0
M  END
> <PUBCHEM_COMPOUND_CID>
10978080

> <PUBCHEM_COMPOUND_CANONICALIZED>
1

> <PUBCHEM_CACTVS_COMPLEXITY>
361

> <PUBCHEM_CACTVS_HBOND_ACCEPTOR>
3

> <PUBCHEM_CACTVS_HBOND_DONOR>
0

> <PUBCHEM_CACTVS_ROTATABLE_BOND>
2

> <PUBCHEM_CACTVS_SUBSKEYS>
AAADceB7IAAAAAAAAAAAAAAAAAAAAAAAAAA8YIAAAAAAAADxAAAAHgAAAAAADDzhmAYyAIMABACQBiBCAAAiAAAgAAAIiAAICIgKpiKAsRmHMAAkwAGYqA+QwPAOwAACAAAQAACQAAaAADAgAAAAAAAAAA==

> <PUBCHEM_IUPAC_OPENEYE_NAME>
(4aR,10bR)-4-propyl-2,3,4a,5,6,10b-hexahydrobenzo[h][1,4]benzoxazine-9-carbonitrile

> <PUBCHEM_IUPAC_CAS_NAME>
(4aR,10bR)-4-propyl-2,3,4a,5,6,10b-hexahydrobenzo[h][1,4]benzoxazine-9-carbonitrile

> <PUBCHEM_IUPAC_NAME_MARKUP>
(4<I>a</I><I>R</I>,10<I>b</I><I>R</I>)-4-propyl-2,3,4<I>a</I>,5,6,10<I>b</I>-hexahydrobenzo[h][1,4]benzoxazine-9-carbonitrile

> <PUBCHEM_IUPAC_NAME>
(4aR,10bR)-4-propyl-2,3,4a,5,6,10b-hexahydrobenzo[h][1,4]benzoxazine-9-carbonitrile

> <PUBCHEM_IUPAC_SYSTEMATIC_NAME>
(4aR,10bR)-4-propyl-2,3,4a,5,6,10b-hexahydrobenzo[h][1,4]benzoxazine-9-carbonitrile

> <PUBCHEM_IUPAC_TRADITIONAL_NAME>
(4aR,10bR)-4-propyl-2,3,4a,5,6,10b-hexahydrobenzo[h][1,4]benzoxazine-9-carbonitrile

> <PUBCHEM_IUPAC_INCHI>
InChI=1S/C16H20N2O/c1-2-7-18-8-9-19-16-14-10-12(11-17)3-4-13(14)5-6-15(16)18/h3-4,10,15-16H,2,5-9H2,1H3/t15-,16-/m1/s1

> <PUBCHEM_IUPAC_INCHIKEY>
SRQHWWYGAZAWQB-HZPDHXFCSA-N

> <PUBCHEM_XLOGP3>
2.5

> <PUBCHEM_EXACT_MASS>
256.157563266

> <PUBCHEM_MOLECULAR_FORMULA>
C16H20N2O

> <PUBCHEM_MOLECULAR_WEIGHT>
256.34

> <PUBCHEM_OPENEYE_CAN_SMILES>
CCCN1CCOC2C1CCC3=C2C=C(C=C3)C#N

> <PUBCHEM_OPENEYE_ISO_SMILES>
CCCN1CCO[C@H]2[C@H]1CCC3=C2C=C(C=C3)C#N

> <PUBCHEM_CACTVS_TPSA>
36.3

> <PUBCHEM_MONOISOTOPIC_WEIGHT>
256.157563266

> <PUBCHEM_TOTAL_CHARGE>
0

> <PUBCHEM_HEAVY_ATOM_COUNT>
19

> <PUBCHEM_ATOM_DEF_STEREO_COUNT>
2

> <PUBCHEM_ATOM_UDEF_STEREO_COUNT>
0

> <PUBCHEM_BOND_DEF_STEREO_COUNT>
0

> <PUBCHEM_BOND_UDEF_STEREO_COUNT>
0

> <PUBCHEM_ISOTOPIC_ATOM_COUNT>
0

> <PUBCHEM_COMPONENT_COUNT>
1

> <PUBCHEM_CACTVS_TAUTO_COUNT>
-1

> <PUBCHEM_COORDINATE_TYPE>
1
5
255

> <PUBCHEM_BONDANNOTATIONS>
10  15  8
13  16  8
15  17  8
16  17  8
4  20  6
5  21  5
8  10  8
8  13  8

$$$$
