44582492
  -OEChem-09292322502D

 60 63  0     0  0  0  0  0  0999 V2000
   12.9786   -1.1860    0.0000 O   0  0  0  0  0  0  0  0  0  0  0  0
    2.6235   -0.3598    0.0000 O   0  0  0  0  0  0  0  0  0  0  0  0
    8.5565   -1.2541    0.0000 N   0  0  0  0  0  0  0  0  0  0  0  0
    6.5788   -0.9560    0.0000 N   0  0  0  0  0  0  0  0  0  0  0  0
   11.7811    0.0115    0.0000 N   0  0  0  0  0  0  0  0  0  0  0  0
    8.1911   -0.3232    0.0000 C   0  0  0  0  0  0  0  0  0  0  0  0
    7.9330   -2.0359    0.0000 C   0  0  0  0  0  0  0  0  0  0  0  0
    9.5453   -1.4031    0.0000 C   0  0  0  0  0  0  0  0  0  0  0  0
    7.2023   -0.1742    0.0000 C   0  0  0  0  0  0  0  0  0  0  0  0
    6.9442   -1.8869    0.0000 C   0  0  0  0  0  0  0  0  0  0  0  0
   10.1688   -0.6213    0.0000 C   0  0  0  0  0  0  0  0  0  0  0  0
   11.1576   -0.7704    0.0000 C   0  0  0  0  0  0  0  0  0  0  0  0
   11.3472    0.9124    0.0000 C   0  0  0  0  0  0  0  0  0  0  0  0
   11.7811    1.8134    0.0000 C   0  0  0  0  0  0  0  0  0  0  0  0
    5.5900   -0.8070    0.0000 C   0  0  0  0  0  0  0  0  0  0  0  0
   12.7560    2.0359    0.0000 C   0  0  0  0  0  0  0  0  0  0  0  0
   12.7560   -0.2110    0.0000 C   0  0  0  0  0  0  0  0  0  0  0  0
   13.5379    1.4124    0.0000 C   0  0  0  0  0  0  0  0  0  0  0  0
   13.5379    0.4124    0.0000 C   0  0  0  0  0  0  0  0  0  0  0  0
    5.2246    0.1239    0.0000 C   0  0  0  0  0  0  0  0  0  0  0  0
    4.9665   -1.5888    0.0000 C   0  0  0  0  0  0  0  0  0  0  0  0
   14.4318    1.9471    0.0000 C   0  0  0  0  0  0  0  0  0  0  0  0
   14.4318   -0.1222    0.0000 C   0  0  0  0  0  0  0  0  0  0  0  0
    4.2358    0.2729    0.0000 C   0  0  0  0  0  0  0  0  0  0  0  0
    3.9777   -1.4398    0.0000 C   0  0  0  0  0  0  0  0  0  0  0  0
   15.3379    1.4333    0.0000 C   0  0  0  0  0  0  0  0  0  0  0  0
   15.3379    0.3916    0.0000 C   0  0  0  0  0  0  0  0  0  0  0  0
    3.6123   -0.5089    0.0000 C   0  0  0  0  0  0  0  0  0  0  0  0
    2.0000   -1.1417    0.0000 C   0  0  0  0  0  0  0  0  0  0  0  0
    8.7988   -0.2004    0.0000 H   0  0  0  0  0  0  0  0  0  0  0  0
    8.1757    0.2966    0.0000 H   0  0  0  0  0  0  0  0  0  0  0  0
    7.7355   -2.6236    0.0000 H   0  0  0  0  0  0  0  0  0  0  0  0
    8.4775   -2.3324    0.0000 H   0  0  0  0  0  0  0  0  0  0  0  0
    9.3478   -1.9909    0.0000 H   0  0  0  0  0  0  0  0  0  0  0  0
   10.0898   -1.6997    0.0000 H   0  0  0  0  0  0  0  0  0  0  0  0
    7.3998    0.4135    0.0000 H   0  0  0  0  0  0  0  0  0  0  0  0
    6.6578    0.1223    0.0000 H   0  0  0  0  0  0  0  0  0  0  0  0
    6.3364   -2.0097    0.0000 H   0  0  0  0  0  0  0  0  0  0  0  0
    6.9596   -2.5067    0.0000 H   0  0  0  0  0  0  0  0  0  0  0  0
   10.3663   -0.0336    0.0000 H   0  0  0  0  0  0  0  0  0  0  0  0
    9.6243   -0.3248    0.0000 H   0  0  0  0  0  0  0  0  0  0  0  0
   10.9602   -1.3581    0.0000 H   0  0  0  0  0  0  0  0  0  0  0  0
   11.7021   -1.0669    0.0000 H   0  0  0  0  0  0  0  0  0  0  0  0
   10.8625    1.2990    0.0000 H   0  0  0  0  0  0  0  0  0  0  0  0
   10.8625    0.5259    0.0000 H   0  0  0  0  0  0  0  0  0  0  0  0
   11.7811    2.4334    0.0000 H   0  0  0  0  0  0  0  0  0  0  0  0
   11.1767    1.9514    0.0000 H   0  0  0  0  0  0  0  0  0  0  0  0
   13.2408    2.4225    0.0000 H   0  0  0  0  0  0  0  0  0  0  0  0
   12.4870    2.5945    0.0000 H   0  0  0  0  0  0  0  0  0  0  0  0
    5.6112    0.6086    0.0000 H   0  0  0  0  0  0  0  0  0  0  0  0
    5.1930   -2.1660    0.0000 H   0  0  0  0  0  0  0  0  0  0  0  0
   14.4246    2.5671    0.0000 H   0  0  0  0  0  0  0  0  0  0  0  0
   14.4246   -0.7422    0.0000 H   0  0  0  0  0  0  0  0  0  0  0  0
    4.0093    0.8501    0.0000 H   0  0  0  0  0  0  0  0  0  0  0  0
    3.5911   -1.9245    0.0000 H   0  0  0  0  0  0  0  0  0  0  0  0
   15.8736    1.7453    0.0000 H   0  0  0  0  0  0  0  0  0  0  0  0
   15.8736    0.0796    0.0000 H   0  0  0  0  0  0  0  0  0  0  0  0
    1.5153   -0.7551    0.0000 H   0  0  0  0  0  0  0  0  0  0  0  0
    1.6134   -1.6264    0.0000 H   0  0  0  0  0  0  0  0  0  0  0  0
    2.4847   -1.5282    0.0000 H   0  0  0  0  0  0  0  0  0  0  0  0
  1 17  2  0  0  0  0
  2 28  1  0  0  0  0
  2 29  1  0  0  0  0
  3  6  1  0  0  0  0
  3  7  1  0  0  0  0
  3  8  1  0  0  0  0
  4  9  1  0  0  0  0
  4 10  1  0  0  0  0
  4 15  1  0  0  0  0
  5 12  1  0  0  0  0
  5 13  1  0  0  0  0
  5 17  1  0  0  0  0
  6  9  1  0  0  0  0
  6 30  1  0  0  0  0
  6 31  1  0  0  0  0
  7 10  1  0  0  0  0
  7 32  1  0  0  0  0
  7 33  1  0  0  0  0
  8 11  1  0  0  0  0
  8 34  1  0  0  0  0
  8 35  1  0  0  0  0
  9 36  1  0  0  0  0
  9 37  1  0  0  0  0
 10 38  1  0  0  0  0
 10 39  1  0  0  0  0
 11 12  1  0  0  0  0
 11 40  1  0  0  0  0
 11 41  1  0  0  0  0
 12 42  1  0  0  0  0
 12 43  1  0  0  0  0
 13 14  1  0  0  0  0
 13 44  1  0  0  0  0
 13 45  1  0  0  0  0
 14 16  1  0  0  0  0
 14 46  1  0  0  0  0
 14 47  1  0  0  0  0
 15 20  2  0  0  0  0
 15 21  1  0  0  0  0
 16 18  1  0  0  0  0
 16 48  1  0  0  0  0
 16 49  1  0  0  0  0
 17 19  1  0  0  0  0
 18 19  1  0  0  0  0
 18 22  2  0  0  0  0
 19 23  2  0  0  0  0
 20 24  1  0  0  0  0
 20 50  1  0  0  0  0
 21 25  2  0  0  0  0
 21 51  1  0  0  0  0
 22 26  1  0  0  0  0
 22 52  1  0  0  0  0
 23 27  1  0  0  0  0
 23 53  1  0  0  0  0
 24 28  2  0  0  0  0
 24 54  1  0  0  0  0
 25 28  1  0  0  0  0
 25 55  1  0  0  0  0
 26 27  2  0  0  0  0
 26 56  1  0  0  0  0
 27 57  1  0  0  0  0
 29 58  1  0  0  0  0
 29 59  1  0  0  0  0
 29 60  1  0  0  0  0
M  END
> <PUBCHEM_COMPOUND_CID>
44582492

> <PUBCHEM_COMPOUND_CANONICALIZED>
1

> <PUBCHEM_CACTVS_COMPLEXITY>
512

> <PUBCHEM_CACTVS_HBOND_ACCEPTOR>
4

> <PUBCHEM_CACTVS_HBOND_DONOR>
0

> <PUBCHEM_CACTVS_ROTATABLE_BOND>
6

> <PUBCHEM_CACTVS_SUBSKEYS>
AAADceB7MAAAAAAAAAAAAAAAAAAAAAAAAAA8YIAABYAAAAABQAAAHgAAAAAADAzBmAYyxoMABACIAiVSUACCCAAlIgAIiAEObMgMZjLE9ZuUMShkxhHI6Ye4yICOgEAAAAAQAAAAgAAAACAAAAAAAAAAAA==

> <PUBCHEM_IUPAC_OPENEYE_NAME>
2-[3-[4-(4-methoxyphenyl)piperazin-1-yl]propyl]-4,5-dihydro-3H-2-benzazepin-1-one

> <PUBCHEM_IUPAC_CAS_NAME>
2-[3-[4-(4-methoxyphenyl)-1-piperazinyl]propyl]-4,5-dihydro-3H-2-benzazepin-1-one

> <PUBCHEM_IUPAC_NAME_MARKUP>
2-[3-[4-(4-methoxyphenyl)piperazin-1-yl]propyl]-4,5-dihydro-3<I>H</I>-2-benzazepin-1-one

> <PUBCHEM_IUPAC_NAME>
2-[3-[4-(4-methoxyphenyl)piperazin-1-yl]propyl]-4,5-dihydro-3H-2-benzazepin-1-one

> <PUBCHEM_IUPAC_SYSTEMATIC_NAME>
2-[3-[4-(4-methoxyphenyl)piperazin-1-yl]propyl]-4,5-dihydro-3H-2-benzazepin-1-one

> <PUBCHEM_IUPAC_TRADITIONAL_NAME>
2-[3-[4-(4-methoxyphenyl)piperazino]propyl]-4,5-dihydro-3H-2-benzazepin-1-one

> <PUBCHEM_IUPAC_INCHI>
InChI=1S/C24H31N3O2/c1-29-22-11-9-21(10-12-22)26-18-16-25(17-19-26)13-5-15-27-14-4-7-20-6-2-3-8-23(20)24(27)28/h2-3,6,8-12H,4-5,7,13-19H2,1H3

> <PUBCHEM_IUPAC_INCHIKEY>
PIGKDOALHKDJJK-UHFFFAOYSA-N

> <PUBCHEM_XLOGP3_AA>
3.7

> <PUBCHEM_EXACT_MASS>
393.24162724

> <PUBCHEM_MOLECULAR_FORMULA>
C24H31N3O2

> <PUBCHEM_MOLECULAR_WEIGHT>
393.5

> <PUBCHEM_OPENEYE_CAN_SMILES>
COC1=CC=C(C=C1)N2CCN(CC2)CCCN3CCCC4=CC=CC=C4C3=O

> <PUBCHEM_OPENEYE_ISO_SMILES>
COC1=CC=C(C=C1)N2CCN(CC2)CCCN3CCCC4=CC=CC=C4C3=O

> <PUBCHEM_CACTVS_TPSA>
36

> <PUBCHEM_MONOISOTOPIC_WEIGHT>
393.24162724

> <PUBCHEM_TOTAL_CHARGE>
0

> <PUBCHEM_HEAVY_ATOM_COUNT>
29

> <PUBCHEM_ATOM_DEF_STEREO_COUNT>
0

> <PUBCHEM_ATOM_UDEF_STEREO_COUNT>
0

> <PUBCHEM_BOND_DEF_STEREO_COUNT>
0

> <PUBCHEM_BOND_UDEF_STEREO_COUNT>
0

> <PUBCHEM_ISOTOPIC_ATOM_COUNT>
0

> <PUBCHEM_COMPONENT_COUNT>
1

> <PUBCHEM_CACTVS_TAUTO_COUNT>
-1

> <PUBCHEM_COORDINATE_TYPE>
1
5
255

> <PUBCHEM_BONDANNOTATIONS>
15  20  8
15  21  8
18  19  8
18  22  8
19  23  8
20  24  8
21  25  8
22  26  8
23  27  8
24  28  8
25  28  8
26  27  8

$$$$
