46880673
  -OEChem-09292322482D

 61 65  0     1  0  0  0  0  0999 V2000
    2.3660   -2.4330    0.0000 F   0  0  0  0  0  0  0  0  0  0  0  0
    2.0000   -1.0670    0.0000 F   0  0  0  0  0  0  0  0  0  0  0  0
    3.3660   -0.7010    0.0000 F   0  0  0  0  0  0  0  0  0  0  0  0
   13.2583   -1.5670    0.0000 O   0  0  0  0  0  0  0  0  0  0  0  0
    9.7942    2.4330    0.0000 O   0  0  0  0  0  0  0  0  0  0  0  0
    3.7320   -2.0670    0.0000 O   0  0  0  0  0  0  0  0  0  0  0  0
   12.3923   -0.0670    0.0000 N   0  0  0  0  0  0  0  0  0  0  0  0
   10.6603    0.9330    0.0000 N   0  0  0  0  0  0  0  0  0  0  0  0
   16.8026   -0.3717    0.0000 N   0  0  0  0  0  0  0  0  0  0  0  0
   12.3923    0.9330    0.0000 C   0  0  2  0  0  0  0  0  0  0  0  0
   11.5263    1.4330    0.0000 C   0  0  0  0  0  0  0  0  0  0  0  0
   11.5263   -0.5670    0.0000 C   0  0  0  0  0  0  0  0  0  0  0  0
   10.6603   -0.0670    0.0000 C   0  0  0  0  0  0  0  0  0  0  0  0
   13.2583    1.4330    0.0000 C   0  0  0  0  0  0  0  0  0  0  0  0
   13.2583   -0.5670    0.0000 C   0  0  0  0  0  0  0  0  0  0  0  0
    9.7942    1.4330    0.0000 C   0  0  0  0  0  0  0  0  0  0  0  0
   14.1244   -0.0670    0.0000 C   0  0  0  0  0  0  0  0  0  0  0  0
    8.9282    0.9330    0.0000 C   0  0  0  0  0  0  0  0  0  0  0  0
   14.9904   -0.5670    0.0000 C   0  0  0  0  0  0  0  0  0  0  0  0
   14.1244    0.9330    0.0000 C   0  0  0  0  0  0  0  0  0  0  0  0
   15.8564   -0.0670    0.0000 C   0  0  0  0  0  0  0  0  0  0  0  0
    8.0622    1.4330    0.0000 C   0  0  0  0  0  0  0  0  0  0  0  0
    8.9282   -0.0670    0.0000 C   0  0  0  0  0  0  0  0  0  0  0  0
   15.8564    0.9330    0.0000 C   0  0  0  0  0  0  0  0  0  0  0  0
   14.9904    1.4330    0.0000 C   0  0  0  0  0  0  0  0  0  0  0  0
    7.1962    0.9330    0.0000 C   0  0  0  0  0  0  0  0  0  0  0  0
    8.0622   -0.5670    0.0000 C   0  0  0  0  0  0  0  0  0  0  0  0
    7.1962   -0.0670    0.0000 C   0  0  0  0  0  0  0  0  0  0  0  0
   16.8026    1.2377    0.0000 C   0  0  0  0  0  0  0  0  0  0  0  0
   17.3862    0.4330    0.0000 C   0  0  0  0  0  0  0  0  0  0  0  0
    6.3301   -0.5670    0.0000 C   0  0  0  0  0  0  0  0  0  0  0  0
    6.3301   -1.5670    0.0000 C   0  0  0  0  0  0  0  0  0  0  0  0
    5.4641   -0.0670    0.0000 C   0  0  0  0  0  0  0  0  0  0  0  0
    5.4641   -2.0670    0.0000 C   0  0  0  0  0  0  0  0  0  0  0  0
    4.5981   -0.5670    0.0000 C   0  0  0  0  0  0  0  0  0  0  0  0
    4.5981   -1.5670    0.0000 C   0  0  0  0  0  0  0  0  0  0  0  0
    2.8660   -1.5670    0.0000 C   0  0  0  0  0  0  0  0  0  0  0  0
   12.9292    0.6230    0.0000 H   0  0  0  0  0  0  0  0  0  0  0  0
   11.9248    1.9080    0.0000 H   0  0  0  0  0  0  0  0  0  0  0  0
   11.1278    1.9080    0.0000 H   0  0  0  0  0  0  0  0  0  0  0  0
   11.1278   -1.0419    0.0000 H   0  0  0  0  0  0  0  0  0  0  0  0
   11.9248   -1.0419    0.0000 H   0  0  0  0  0  0  0  0  0  0  0  0
   10.0497    0.0407    0.0000 H   0  0  0  0  0  0  0  0  0  0  0  0
   10.4482   -0.6496    0.0000 H   0  0  0  0  0  0  0  0  0  0  0  0
   13.5683    0.8961    0.0000 H   0  0  0  0  0  0  0  0  0  0  0  0
   13.7953    1.7430    0.0000 H   0  0  0  0  0  0  0  0  0  0  0  0
   12.9483    1.9700    0.0000 H   0  0  0  0  0  0  0  0  0  0  0  0
   14.9904   -1.1870    0.0000 H   0  0  0  0  0  0  0  0  0  0  0  0
   13.5874    1.2430    0.0000 H   0  0  0  0  0  0  0  0  0  0  0  0
    8.0622    2.0530    0.0000 H   0  0  0  0  0  0  0  0  0  0  0  0
    9.4651   -0.3770    0.0000 H   0  0  0  0  0  0  0  0  0  0  0  0
   14.9904    2.0530    0.0000 H   0  0  0  0  0  0  0  0  0  0  0  0
    6.6592    1.2430    0.0000 H   0  0  0  0  0  0  0  0  0  0  0  0
    8.0622   -1.1870    0.0000 H   0  0  0  0  0  0  0  0  0  0  0  0
   16.9952   -0.9610    0.0000 H   0  0  0  0  0  0  0  0  0  0  0  0
   16.9952    1.8271    0.0000 H   0  0  0  0  0  0  0  0  0  0  0  0
   18.0062    0.4330    0.0000 H   0  0  0  0  0  0  0  0  0  0  0  0
    6.8671   -1.8770    0.0000 H   0  0  0  0  0  0  0  0  0  0  0  0
    5.4641    0.5530    0.0000 H   0  0  0  0  0  0  0  0  0  0  0  0
    5.4641   -2.6870    0.0000 H   0  0  0  0  0  0  0  0  0  0  0  0
    4.0611   -0.2570    0.0000 H   0  0  0  0  0  0  0  0  0  0  0  0
  1 37  1  0  0  0  0
  2 37  1  0  0  0  0
  3 37  1  0  0  0  0
  4 15  2  0  0  0  0
  5 16  2  0  0  0  0
  6 36  1  0  0  0  0
  6 37  1  0  0  0  0
  7 10  1  0  0  0  0
  7 12  1  0  0  0  0
  7 15  1  0  0  0  0
  8 11  1  0  0  0  0
  8 13  1  0  0  0  0
  8 16  1  0  0  0  0
  9 21  1  0  0  0  0
  9 30  1  0  0  0  0
  9 55  1  0  0  0  0
 10 11  1  0  0  0  0
 10 14  1  6  0  0  0
 10 38  1  0  0  0  0
 11 39  1  0  0  0  0
 11 40  1  0  0  0  0
 12 13  1  0  0  0  0
 12 41  1  0  0  0  0
 12 42  1  0  0  0  0
 13 43  1  0  0  0  0
 13 44  1  0  0  0  0
 14 45  1  0  0  0  0
 14 46  1  0  0  0  0
 14 47  1  0  0  0  0
 15 17  1  0  0  0  0
 16 18  1  0  0  0  0
 17 19  2  0  0  0  0
 17 20  1  0  0  0  0
 18 22  2  0  0  0  0
 18 23  1  0  0  0  0
 19 21  1  0  0  0  0
 19 48  1  0  0  0  0
 20 25  2  0  0  0  0
 20 49  1  0  0  0  0
 21 24  2  0  0  0  0
 22 26  1  0  0  0  0
 22 50  1  0  0  0  0
 23 27  2  0  0  0  0
 23 51  1  0  0  0  0
 24 25  1  0  0  0  0
 24 29  1  0  0  0  0
 25 52  1  0  0  0  0
 26 28  2  0  0  0  0
 26 53  1  0  0  0  0
 27 28  1  0  0  0  0
 27 54  1  0  0  0  0
 28 31  1  0  0  0  0
 29 30  2  0  0  0  0
 29 56  1  0  0  0  0
 30 57  1  0  0  0  0
 31 32  2  0  0  0  0
 31 33  1  0  0  0  0
 32 34  1  0  0  0  0
 32 58  1  0  0  0  0
 33 35  2  0  0  0  0
 33 59  1  0  0  0  0
 34 36  2  0  0  0  0
 34 60  1  0  0  0  0
 35 36  1  0  0  0  0
 35 61  1  0  0  0  0
M  END
> <PUBCHEM_COMPOUND_CID>
46880673

> <PUBCHEM_COMPOUND_CANONICALIZED>
1

> <PUBCHEM_CACTVS_COMPLEXITY>
808

> <PUBCHEM_CACTVS_HBOND_ACCEPTOR>
6

> <PUBCHEM_CACTVS_HBOND_DONOR>
1

> <PUBCHEM_CACTVS_ROTATABLE_BOND>
4

> <PUBCHEM_CACTVS_SUBSKEYS>
AAADceB7MYAAAAAAAAAAAAAAAAAAAWAAAAA8YMEAAAAAAFgB9AAAHwAQAAAADCzBnhQ+xvPJlACoAzV3VACCiCA1IiAI2aE+bNgMZvLEtZuUMShk1hHI6YecyPCO4AAAQAACAADAAACAAAQAAAAAAAAAAA==

> <PUBCHEM_IUPAC_OPENEYE_NAME>
[(3S)-4-(1H-indole-6-carbonyl)-3-methyl-piperazin-1-yl]-[4-[4-(trifluoromethoxy)phenyl]phenyl]methanone

> <PUBCHEM_IUPAC_CAS_NAME>
[(3S)-4-[1H-indol-6-yl(oxo)methyl]-3-methyl-1-piperazinyl]-[4-[4-(trifluoromethoxy)phenyl]phenyl]methanone

> <PUBCHEM_IUPAC_NAME_MARKUP>
[(3<I>S</I>)-4-(1<I>H</I>-indole-6-carbonyl)-3-methylpiperazin-1-yl]-[4-[4-(trifluoromethoxy)phenyl]phenyl]methanone

> <PUBCHEM_IUPAC_NAME>
[(3S)-4-(1H-indole-6-carbonyl)-3-methylpiperazin-1-yl]-[4-[4-(trifluoromethoxy)phenyl]phenyl]methanone

> <PUBCHEM_IUPAC_SYSTEMATIC_NAME>
[(3S)-4-(1H-indol-6-ylcarbonyl)-3-methyl-piperazin-1-yl]-[4-[4-(trifluoromethyloxy)phenyl]phenyl]methanone

> <PUBCHEM_IUPAC_TRADITIONAL_NAME>
[(3S)-4-(1H-indole-6-carbonyl)-3-methyl-piperazino]-[4-[4-(trifluoromethoxy)phenyl]phenyl]methanone

> <PUBCHEM_IUPAC_INCHI>
InChI=1S/C28H24F3N3O3/c1-18-17-33(14-15-34(18)27(36)23-7-4-21-12-13-32-25(21)16-23)26(35)22-5-2-19(3-6-22)20-8-10-24(11-9-20)37-28(29,30)31/h2-13,16,18,32H,14-15,17H2,1H3/t18-/m0/s1

> <PUBCHEM_IUPAC_INCHIKEY>
MIJPHKXHAZCAQK-SFHVURJKSA-N

> <PUBCHEM_XLOGP3_AA>
5.7

> <PUBCHEM_EXACT_MASS>
507.17697612

> <PUBCHEM_MOLECULAR_FORMULA>
C28H24F3N3O3

> <PUBCHEM_MOLECULAR_WEIGHT>
507.5

> <PUBCHEM_OPENEYE_CAN_SMILES>
CC1CN(CCN1C(=O)C2=CC3=C(C=C2)C=CN3)C(=O)C4=CC=C(C=C4)C5=CC=C(C=C5)OC(F)(F)F

> <PUBCHEM_OPENEYE_ISO_SMILES>
C[C@H]1CN(CCN1C(=O)C2=CC3=C(C=C2)C=CN3)C(=O)C4=CC=C(C=C4)C5=CC=C(C=C5)OC(F)(F)F

> <PUBCHEM_CACTVS_TPSA>
65.6

> <PUBCHEM_MONOISOTOPIC_WEIGHT>
507.17697612

> <PUBCHEM_TOTAL_CHARGE>
0

> <PUBCHEM_HEAVY_ATOM_COUNT>
37

> <PUBCHEM_ATOM_DEF_STEREO_COUNT>
1

> <PUBCHEM_ATOM_UDEF_STEREO_COUNT>
0

> <PUBCHEM_BOND_DEF_STEREO_COUNT>
0

> <PUBCHEM_BOND_UDEF_STEREO_COUNT>
0

> <PUBCHEM_ISOTOPIC_ATOM_COUNT>
0

> <PUBCHEM_COMPONENT_COUNT>
1

> <PUBCHEM_CACTVS_TAUTO_COUNT>
-1

> <PUBCHEM_COORDINATE_TYPE>
1
5
255

> <PUBCHEM_BONDANNOTATIONS>
10  14  6
17  19  8
17  20  8
18  22  8
18  23  8
19  21  8
20  25  8
21  24  8
22  26  8
23  27  8
24  25  8
24  29  8
26  28  8
27  28  8
29  30  8
31  32  8
31  33  8
32  34  8
33  35  8
34  36  8
35  36  8
9  21  8
9  30  8

$$$$
