164613674
  -OEChem-09292322432D

 76 80  0     0  0  0  0  0  0999 V2000
    2.0000   -5.5293    0.0000 F   0  0  0  0  0  0  0  0  0  0  0  0
    5.5443   -5.3341    0.0000 O   0  0  0  0  0  0  0  0  0  0  0  0
    9.3653    2.3910    0.0000 O   0  0  0  0  0  0  0  0  0  0  0  0
    6.4763   -0.8730    0.0000 N   0  0  0  0  0  0  0  0  0  0  0  0
   14.5685    4.3726    0.0000 N   0  0  0  0  0  0  0  0  0  0  0  0
    6.1279   -4.5293    0.0000 N   0  0  0  0  0  0  0  0  0  0  0  0
    5.8550   -2.7741    0.0000 C   0  0  0  0  0  0  0  0  0  0  0  0
    5.1871   -2.0298    0.0000 C   0  0  0  0  0  0  0  0  0  0  0  0
    6.8335   -2.5678    0.0000 C   0  0  0  0  0  0  0  0  0  0  0  0
    5.4978   -1.0792    0.0000 C   0  0  0  0  0  0  0  0  0  0  0  0
    7.1441   -1.6173    0.0000 C   0  0  0  0  0  0  0  0  0  0  0  0
   16.5255    4.7850    0.0000 C   0  0  0  0  0  0  0  0  0  0  0  0
   16.2148    3.8345    0.0000 C   0  0  0  0  0  0  0  0  0  0  0  0
   15.8576    5.5293    0.0000 C   0  0  0  0  0  0  0  0  0  0  0  0
   15.2363    3.6283    0.0000 C   0  0  0  0  0  0  0  0  0  0  0  0
   14.8791    5.3231    0.0000 C   0  0  0  0  0  0  0  0  0  0  0  0
    6.7870    0.0775    0.0000 C   0  0  0  0  0  0  0  0  0  0  0  0
    5.5443   -3.7246    0.0000 C   0  0  0  0  0  0  0  0  0  0  0  0
   13.5900    4.1664    0.0000 C   0  0  0  0  0  0  0  0  0  0  0  0
    7.7654    0.2837    0.0000 C   0  0  0  0  0  0  0  0  0  0  0  0
   17.5040    4.9912    0.0000 C   0  0  0  0  0  0  0  0  0  0  0  0
    4.5981   -4.0293    0.0000 C   0  0  0  0  0  0  0  0  0  0  0  0
   13.2793    3.2158    0.0000 C   0  0  0  0  0  0  0  0  0  0  0  0
    8.0761    1.2342    0.0000 C   0  0  0  0  0  0  0  0  0  0  0  0
    4.5981   -5.0293    0.0000 C   0  0  0  0  0  0  0  0  0  0  0  0
   12.3008    3.0096    0.0000 C   0  0  0  0  0  0  0  0  0  0  0  0
    9.0546    1.4404    0.0000 C   0  0  0  0  0  0  0  0  0  0  0  0
    3.7320   -3.5293    0.0000 C   0  0  0  0  0  0  0  0  0  0  0  0
    3.7320   -5.5293    0.0000 C   0  0  0  0  0  0  0  0  0  0  0  0
   11.9901    2.0591    0.0000 C   0  0  0  0  0  0  0  0  0  0  0  0
   11.6330    3.7539    0.0000 C   0  0  0  0  0  0  0  0  0  0  0  0
    2.8660   -4.0293    0.0000 C   0  0  0  0  0  0  0  0  0  0  0  0
   10.3438    2.5972    0.0000 C   0  0  0  0  0  0  0  0  0  0  0  0
    2.8660   -5.0293    0.0000 C   0  0  0  0  0  0  0  0  0  0  0  0
   11.0116    1.8529    0.0000 C   0  0  0  0  0  0  0  0  0  0  0  0
   10.6545    3.5477    0.0000 C   0  0  0  0  0  0  0  0  0  0  0  0
    6.2690   -3.2355    0.0000 H   0  0  0  0  0  0  0  0  0  0  0  0
    4.6402   -1.7378    0.0000 H   0  0  0  0  0  0  0  0  0  0  0  0
    4.8046   -2.5177    0.0000 H   0  0  0  0  0  0  0  0  0  0  0  0
    6.8540   -3.1875    0.0000 H   0  0  0  0  0  0  0  0  0  0  0  0
    7.4473   -2.6552    0.0000 H   0  0  0  0  0  0  0  0  0  0  0  0
    5.4772   -0.4596    0.0000 H   0  0  0  0  0  0  0  0  0  0  0  0
    4.8840   -0.9919    0.0000 H   0  0  0  0  0  0  0  0  0  0  0  0
    7.6910   -1.9094    0.0000 H   0  0  0  0  0  0  0  0  0  0  0  0
    7.5267   -1.1294    0.0000 H   0  0  0  0  0  0  0  0  0  0  0  0
   16.9395    4.3236    0.0000 H   0  0  0  0  0  0  0  0  0  0  0  0
   16.2354    3.2148    0.0000 H   0  0  0  0  0  0  0  0  0  0  0  0
   16.8286    3.7472    0.0000 H   0  0  0  0  0  0  0  0  0  0  0  0
   16.3840    5.8570    0.0000 H   0  0  0  0  0  0  0  0  0  0  0  0
   15.6264    6.1046    0.0000 H   0  0  0  0  0  0  0  0  0  0  0  0
   14.7100    3.3006    0.0000 H   0  0  0  0  0  0  0  0  0  0  0  0
   15.4676    3.0530    0.0000 H   0  0  0  0  0  0  0  0  0  0  0  0
   14.8586    5.9428    0.0000 H   0  0  0  0  0  0  0  0  0  0  0  0
   14.2653    5.4104    0.0000 H   0  0  0  0  0  0  0  0  0  0  0  0
    6.7664    0.6972    0.0000 H   0  0  0  0  0  0  0  0  0  0  0  0
    6.1731    0.1648    0.0000 H   0  0  0  0  0  0  0  0  0  0  0  0
   13.5694    4.7860    0.0000 H   0  0  0  0  0  0  0  0  0  0  0  0
   12.9762    4.2537    0.0000 H   0  0  0  0  0  0  0  0  0  0  0  0
    7.7860   -0.3359    0.0000 H   0  0  0  0  0  0  0  0  0  0  0  0
    8.3793    0.1964    0.0000 H   0  0  0  0  0  0  0  0  0  0  0  0
   17.6318    4.3846    0.0000 H   0  0  0  0  0  0  0  0  0  0  0  0
   18.1107    5.1191    0.0000 H   0  0  0  0  0  0  0  0  0  0  0  0
   17.3761    5.5979    0.0000 H   0  0  0  0  0  0  0  0  0  0  0  0
   13.2999    2.5962    0.0000 H   0  0  0  0  0  0  0  0  0  0  0  0
   13.8931    3.1285    0.0000 H   0  0  0  0  0  0  0  0  0  0  0  0
    8.0556    1.8539    0.0000 H   0  0  0  0  0  0  0  0  0  0  0  0
    7.4623    1.3216    0.0000 H   0  0  0  0  0  0  0  0  0  0  0  0
    9.0752    0.8208    0.0000 H   0  0  0  0  0  0  0  0  0  0  0  0
    9.6684    1.3531    0.0000 H   0  0  0  0  0  0  0  0  0  0  0  0
    3.7320   -2.9093    0.0000 H   0  0  0  0  0  0  0  0  0  0  0  0
    3.7320   -6.1493    0.0000 H   0  0  0  0  0  0  0  0  0  0  0  0
   12.4042    1.5976    0.0000 H   0  0  0  0  0  0  0  0  0  0  0  0
   11.8256    4.3432    0.0000 H   0  0  0  0  0  0  0  0  0  0  0  0
    2.3291   -3.7193    0.0000 H   0  0  0  0  0  0  0  0  0  0  0  0
   10.8190    1.2636    0.0000 H   0  0  0  0  0  0  0  0  0  0  0  0
   10.2404    4.0092    0.0000 H   0  0  0  0  0  0  0  0  0  0  0  0
  1 34  1  0  0  0  0
  2  6  1  0  0  0  0
  2 25  1  0  0  0  0
  3 27  1  0  0  0  0
  3 33  1  0  0  0  0
  4 10  1  0  0  0  0
  4 11  1  0  0  0  0
  4 17  1  0  0  0  0
  5 15  1  0  0  0  0
  5 16  1  0  0  0  0
  5 19  1  0  0  0  0
  6 18  2  0  0  0  0
  7  8  1  0  0  0  0
  7  9  1  0  0  0  0
  7 18  1  0  0  0  0
  7 37  1  0  0  0  0
  8 10  1  0  0  0  0
  8 38  1  0  0  0  0
  8 39  1  0  0  0  0
  9 11  1  0  0  0  0
  9 40  1  0  0  0  0
  9 41  1  0  0  0  0
 10 42  1  0  0  0  0
 10 43  1  0  0  0  0
 11 44  1  0  0  0  0
 11 45  1  0  0  0  0
 12 13  1  0  0  0  0
 12 14  1  0  0  0  0
 12 21  1  0  0  0  0
 12 46  1  0  0  0  0
 13 15  1  0  0  0  0
 13 47  1  0  0  0  0
 13 48  1  0  0  0  0
 14 16  1  0  0  0  0
 14 49  1  0  0  0  0
 14 50  1  0  0  0  0
 15 51  1  0  0  0  0
 15 52  1  0  0  0  0
 16 53  1  0  0  0  0
 16 54  1  0  0  0  0
 17 20  1  0  0  0  0
 17 55  1  0  0  0  0
 17 56  1  0  0  0  0
 18 22  1  0  0  0  0
 19 23  1  0  0  0  0
 19 57  1  0  0  0  0
 19 58  1  0  0  0  0
 20 24  1  0  0  0  0
 20 59  1  0  0  0  0
 20 60  1  0  0  0  0
 21 61  1  0  0  0  0
 21 62  1  0  0  0  0
 21 63  1  0  0  0  0
 22 25  2  0  0  0  0
 22 28  1  0  0  0  0
 23 26  1  0  0  0  0
 23 64  1  0  0  0  0
 23 65  1  0  0  0  0
 24 27  1  0  0  0  0
 24 66  1  0  0  0  0
 24 67  1  0  0  0  0
 25 29  1  0  0  0  0
 26 30  2  0  0  0  0
 26 31  1  0  0  0  0
 27 68  1  0  0  0  0
 27 69  1  0  0  0  0
 28 32  2  0  0  0  0
 28 70  1  0  0  0  0
 29 34  2  0  0  0  0
 29 71  1  0  0  0  0
 30 35  1  0  0  0  0
 30 72  1  0  0  0  0
 31 36  2  0  0  0  0
 31 73  1  0  0  0  0
 32 34  1  0  0  0  0
 32 74  1  0  0  0  0
 33 35  2  0  0  0  0
 33 36  1  0  0  0  0
 35 75  1  0  0  0  0
 36 76  1  0  0  0  0
M  END
> <PUBCHEM_COMPOUND_CID>
164613674

> <PUBCHEM_COMPOUND_CANONICALIZED>
1

> <PUBCHEM_CACTVS_COMPLEXITY>
630

> <PUBCHEM_CACTVS_HBOND_ACCEPTOR>
6

> <PUBCHEM_CACTVS_HBOND_DONOR>
0

> <PUBCHEM_CACTVS_ROTATABLE_BOND>
10

> <PUBCHEM_CACTVS_SUBSKEYS>
AAADcfB7MQAAAAAAAAAAAAAAAAAAAWAAAAA8eIEAAAAAAFgB9AAAHwAEAAAADQzhng4yhtMQBACpA6RyQgCCCAAkIAAomCE+TNoMJrqEtZuGOaDmwBmI6ce4yOCOIAAAAAAIAABAAAAAABAAAAAAAAAAAA==

> <PUBCHEM_IUPAC_OPENEYE_NAME>
6-fluoro-3-[1-[4-[4-[2-(4-methyl-1-piperidyl)ethyl]phenoxy]butyl]-4-piperidyl]-1,2-benzoxazole

> <PUBCHEM_IUPAC_CAS_NAME>
6-fluoro-3-[1-[4-[4-[2-(4-methyl-1-piperidinyl)ethyl]phenoxy]butyl]-4-piperidinyl]-1,2-benzoxazole

> <PUBCHEM_IUPAC_NAME_MARKUP>
6-fluoro-3-[1-[4-[4-[2-(4-methylpiperidin-1-yl)ethyl]phenoxy]butyl]piperidin-4-yl]-1,2-benzoxazole

> <PUBCHEM_IUPAC_NAME>
6-fluoro-3-[1-[4-[4-[2-(4-methylpiperidin-1-yl)ethyl]phenoxy]butyl]piperidin-4-yl]-1,2-benzoxazole

> <PUBCHEM_IUPAC_SYSTEMATIC_NAME>
6-fluoranyl-3-[1-[4-[4-[2-(4-methylpiperidin-1-yl)ethyl]phenoxy]butyl]piperidin-4-yl]-1,2-benzoxazole

> <PUBCHEM_IUPAC_TRADITIONAL_NAME>
6-fluoro-3-[1-[4-[4-[2-(4-methylpiperidino)ethyl]phenoxy]butyl]-4-piperidyl]indoxazene

> <PUBCHEM_IUPAC_INCHI>
InChI=1S/C30H40FN3O2/c1-23-10-16-34(17-11-23)18-12-24-4-7-27(8-5-24)35-21-3-2-15-33-19-13-25(14-20-33)30-28-9-6-26(31)22-29(28)36-32-30/h4-9,22-23,25H,2-3,10-21H2,1H3

> <PUBCHEM_IUPAC_INCHIKEY>
CRMAPALWSALKCW-UHFFFAOYSA-N

> <PUBCHEM_XLOGP3_AA>
6.4

> <PUBCHEM_EXACT_MASS>
493.31045569

> <PUBCHEM_MOLECULAR_FORMULA>
C30H40FN3O2

> <PUBCHEM_MOLECULAR_WEIGHT>
493.7

> <PUBCHEM_OPENEYE_CAN_SMILES>
CC1CCN(CC1)CCC2=CC=C(C=C2)OCCCCN3CCC(CC3)C4=NOC5=C4C=CC(=C5)F

> <PUBCHEM_OPENEYE_ISO_SMILES>
CC1CCN(CC1)CCC2=CC=C(C=C2)OCCCCN3CCC(CC3)C4=NOC5=C4C=CC(=C5)F

> <PUBCHEM_CACTVS_TPSA>
41.7

> <PUBCHEM_MONOISOTOPIC_WEIGHT>
493.31045569

> <PUBCHEM_TOTAL_CHARGE>
0

> <PUBCHEM_HEAVY_ATOM_COUNT>
36

> <PUBCHEM_ATOM_DEF_STEREO_COUNT>
0

> <PUBCHEM_ATOM_UDEF_STEREO_COUNT>
0

> <PUBCHEM_BOND_DEF_STEREO_COUNT>
0

> <PUBCHEM_BOND_UDEF_STEREO_COUNT>
0

> <PUBCHEM_ISOTOPIC_ATOM_COUNT>
0

> <PUBCHEM_COMPONENT_COUNT>
1

> <PUBCHEM_CACTVS_TAUTO_COUNT>
-1

> <PUBCHEM_COORDINATE_TYPE>
1
5
255

> <PUBCHEM_BONDANNOTATIONS>
18  22  8
2  25  8
2  6  8
22  25  8
22  28  8
25  29  8
26  30  8
26  31  8
28  32  8
29  34  8
30  35  8
31  36  8
32  34  8
33  35  8
33  36  8
6  18  8

$$$$
