156018685
  -OEChem-09292322012D

 55 59  0     0  0  0  0  0  0999 V2000
   15.7987   -2.3580    0.0000 S   0  0  0  0  0  0  0  0  0  0  0  0
    6.7210    2.9416    0.0000 O   0  0  0  0  0  0  0  0  0  0  0  0
   10.9939   -0.5457    0.0000 N   0  0  0  0  0  0  0  0  0  0  0  0
   12.9939   -0.5457    0.0000 N   0  0  0  0  0  0  0  0  0  0  0  0
    6.9939    1.1863    0.0000 N   0  0  0  0  0  0  0  0  0  0  0  0
    5.4641    1.6863    0.0000 N   0  0  0  0  0  0  0  0  0  0  0  0
    6.4103    0.3816    0.0000 N   0  0  0  0  0  0  0  0  0  0  0  0
    2.0000    2.6863    0.0000 N   0  0  0  0  0  0  0  0  0  0  0  0
   11.4939   -1.4118    0.0000 C   0  0  0  0  0  0  0  0  0  0  0  0
   11.4939    0.3203    0.0000 C   0  0  0  0  0  0  0  0  0  0  0  0
   12.4939   -1.4118    0.0000 C   0  0  0  0  0  0  0  0  0  0  0  0
   12.4939    0.3203    0.0000 C   0  0  0  0  0  0  0  0  0  0  0  0
    9.9939   -0.5457    0.0000 C   0  0  0  0  0  0  0  0  0  0  0  0
    9.4939    0.3203    0.0000 C   0  0  0  0  0  0  0  0  0  0  0  0
   13.9939   -0.5457    0.0000 C   0  0  0  0  0  0  0  0  0  0  0  0
    8.4939    0.3203    0.0000 C   0  0  0  0  0  0  0  0  0  0  0  0
    7.9939    1.1863    0.0000 C   0  0  0  0  0  0  0  0  0  0  0  0
   14.4939   -1.4118    0.0000 C   0  0  0  0  0  0  0  0  0  0  0  0
   14.4939    0.3203    0.0000 C   0  0  0  0  0  0  0  0  0  0  0  0
   15.4939   -1.4118    0.0000 C   0  0  0  0  0  0  0  0  0  0  0  0
   14.1892   -2.3580    0.0000 C   0  0  0  0  0  0  0  0  0  0  0  0
   15.4939    0.3203    0.0000 C   0  0  0  0  0  0  0  0  0  0  0  0
   15.9939   -0.5457    0.0000 C   0  0  0  0  0  0  0  0  0  0  0  0
    6.4103    1.9911    0.0000 C   0  0  0  0  0  0  0  0  0  0  0  0
    5.4641    0.6863    0.0000 C   0  0  0  0  0  0  0  0  0  0  0  0
   14.9939   -2.9416    0.0000 C   0  0  0  0  0  0  0  0  0  0  0  0
    4.5981    2.1863    0.0000 C   0  0  0  0  0  0  0  0  0  0  0  0
    4.5981    0.1863    0.0000 C   0  0  0  0  0  0  0  0  0  0  0  0
    3.7320    1.6863    0.0000 C   0  0  0  0  0  0  0  0  0  0  0  0
    3.7320    0.6863    0.0000 C   0  0  0  0  0  0  0  0  0  0  0  0
    2.8660    2.1863    0.0000 C   0  0  0  0  0  0  0  0  0  0  0  0
   10.9113   -1.6238    0.0000 H   0  0  0  0  0  0  0  0  0  0  0  0
   11.6016   -2.0223    0.0000 H   0  0  0  0  0  0  0  0  0  0  0  0
   11.6016    0.9309    0.0000 H   0  0  0  0  0  0  0  0  0  0  0  0
   10.9113    0.5324    0.0000 H   0  0  0  0  0  0  0  0  0  0  0  0
   12.3863   -2.0223    0.0000 H   0  0  0  0  0  0  0  0  0  0  0  0
   13.0765   -1.6238    0.0000 H   0  0  0  0  0  0  0  0  0  0  0  0
   13.0765    0.5324    0.0000 H   0  0  0  0  0  0  0  0  0  0  0  0
   12.3863    0.9309    0.0000 H   0  0  0  0  0  0  0  0  0  0  0  0
    9.4113   -0.7578    0.0000 H   0  0  0  0  0  0  0  0  0  0  0  0
   10.1016   -1.1563    0.0000 H   0  0  0  0  0  0  0  0  0  0  0  0
   10.0765    0.5324    0.0000 H   0  0  0  0  0  0  0  0  0  0  0  0
    9.3863    0.9309    0.0000 H   0  0  0  0  0  0  0  0  0  0  0  0
    7.9113    0.1082    0.0000 H   0  0  0  0  0  0  0  0  0  0  0  0
    8.6016   -0.2903    0.0000 H   0  0  0  0  0  0  0  0  0  0  0  0
    8.5765    1.3984    0.0000 H   0  0  0  0  0  0  0  0  0  0  0  0
    7.8863    1.7969    0.0000 H   0  0  0  0  0  0  0  0  0  0  0  0
   14.1839    0.8572    0.0000 H   0  0  0  0  0  0  0  0  0  0  0  0
   13.5999   -2.5506    0.0000 H   0  0  0  0  0  0  0  0  0  0  0  0
   15.8039    0.8572    0.0000 H   0  0  0  0  0  0  0  0  0  0  0  0
   16.6139   -0.5457    0.0000 H   0  0  0  0  0  0  0  0  0  0  0  0
   14.9939   -3.5616    0.0000 H   0  0  0  0  0  0  0  0  0  0  0  0
    4.5981    2.8063    0.0000 H   0  0  0  0  0  0  0  0  0  0  0  0
    4.5981   -0.4337    0.0000 H   0  0  0  0  0  0  0  0  0  0  0  0
    3.1951    0.3763    0.0000 H   0  0  0  0  0  0  0  0  0  0  0  0
  1 20  1  0  0  0  0
  1 26  1  0  0  0  0
  2 24  2  0  0  0  0
  3  9  1  0  0  0  0
  3 10  1  0  0  0  0
  3 13  1  0  0  0  0
  4 11  1  0  0  0  0
  4 12  1  0  0  0  0
  4 15  1  0  0  0  0
  5  7  1  0  0  0  0
  5 17  1  0  0  0  0
  5 24  1  0  0  0  0
  6 24  1  0  0  0  0
  6 25  1  0  0  0  0
  6 27  1  0  0  0  0
  7 25  2  0  0  0  0
  8 31  3  0  0  0  0
  9 11  1  0  0  0  0
  9 32  1  0  0  0  0
  9 33  1  0  0  0  0
 10 12  1  0  0  0  0
 10 34  1  0  0  0  0
 10 35  1  0  0  0  0
 11 36  1  0  0  0  0
 11 37  1  0  0  0  0
 12 38  1  0  0  0  0
 12 39  1  0  0  0  0
 13 14  1  0  0  0  0
 13 40  1  0  0  0  0
 13 41  1  0  0  0  0
 14 16  1  0  0  0  0
 14 42  1  0  0  0  0
 14 43  1  0  0  0  0
 15 18  2  0  0  0  0
 15 19  1  0  0  0  0
 16 17  1  0  0  0  0
 16 44  1  0  0  0  0
 16 45  1  0  0  0  0
 17 46  1  0  0  0  0
 17 47  1  0  0  0  0
 18 20  1  0  0  0  0
 18 21  1  0  0  0  0
 19 22  2  0  0  0  0
 19 48  1  0  0  0  0
 20 23  2  0  0  0  0
 21 26  2  0  0  0  0
 21 49  1  0  0  0  0
 22 23  1  0  0  0  0
 22 50  1  0  0  0  0
 23 51  1  0  0  0  0
 25 28  1  0  0  0  0
 26 52  1  0  0  0  0
 27 29  2  0  0  0  0
 27 53  1  0  0  0  0
 28 30  2  0  0  0  0
 28 54  1  0  0  0  0
 29 30  1  0  0  0  0
 29 31  1  0  0  0  0
 30 55  1  0  0  0  0
M  END
> <PUBCHEM_COMPOUND_CID>
156018685

> <PUBCHEM_COMPOUND_CANONICALIZED>
1

> <PUBCHEM_CACTVS_COMPLEXITY>
836

> <PUBCHEM_CACTVS_HBOND_ACCEPTOR>
6

> <PUBCHEM_CACTVS_HBOND_DONOR>
0

> <PUBCHEM_CACTVS_ROTATABLE_BOND>
6

> <PUBCHEM_CACTVS_SUBSKEYS>
AAADceB7oABAAAAAAAAAAAAAAAAAASIAAAA8QIAAAAAAAEgB8AAAHgQIAAAADAjFWASxwcMAAAi8BiZmcACzAIAhChBfiBgYZJiI4CLgkZGUIAxojgLoyAcQgIAOAAAAACAGAAAAAAAAQAwAAAAAAAAAAA==

> <PUBCHEM_IUPAC_OPENEYE_NAME>
2-[4-[4-(benzothiophen-4-yl)piperazin-1-yl]butyl]-3-oxo-[1,2,4]triazolo[4,3-a]pyridine-6-carbonitrile

> <PUBCHEM_IUPAC_CAS_NAME>
2-[4-[4-(1-benzothiophen-4-yl)-1-piperazinyl]butyl]-3-oxo-[1,2,4]triazolo[4,3-a]pyridine-6-carbonitrile

> <PUBCHEM_IUPAC_NAME_MARKUP>
2-[4-[4-(1-benzothiophen-4-yl)piperazin-1-yl]butyl]-3-oxo-[1,2,4]triazolo[4,3-a]pyridine-6-carbonitrile

> <PUBCHEM_IUPAC_NAME>
2-[4-[4-(1-benzothiophen-4-yl)piperazin-1-yl]butyl]-3-oxo-[1,2,4]triazolo[4,3-a]pyridine-6-carbonitrile

> <PUBCHEM_IUPAC_SYSTEMATIC_NAME>
2-[4-[4-(1-benzothiophen-4-yl)piperazin-1-yl]butyl]-3-oxidanylidene-[1,2,4]triazolo[4,3-a]pyridine-6-carbonitrile

> <PUBCHEM_IUPAC_TRADITIONAL_NAME>
2-[4-[4-(benzothiophen-4-yl)piperazino]butyl]-3-keto-[1,2,4]triazolo[4,3-a]pyridine-6-carbonitrile

> <PUBCHEM_IUPAC_INCHI>
InChI=1S/C23H24N6OS/c24-16-18-6-7-22-25-29(23(30)28(22)17-18)10-2-1-9-26-11-13-27(14-12-26)20-4-3-5-21-19(20)8-15-31-21/h3-8,15,17H,1-2,9-14H2

> <PUBCHEM_IUPAC_INCHIKEY>
LDAHGSIPSNYPMF-UHFFFAOYSA-N

> <PUBCHEM_XLOGP3_AA>
3

> <PUBCHEM_EXACT_MASS>
432.17323058

> <PUBCHEM_MOLECULAR_FORMULA>
C23H24N6OS

> <PUBCHEM_MOLECULAR_WEIGHT>
432.5

> <PUBCHEM_OPENEYE_CAN_SMILES>
C1CN(CCN1CCCCN2C(=O)N3C=C(C=CC3=N2)C#N)C4=C5C=CSC5=CC=C4

> <PUBCHEM_OPENEYE_ISO_SMILES>
C1CN(CCN1CCCCN2C(=O)N3C=C(C=CC3=N2)C#N)C4=C5C=CSC5=CC=C4

> <PUBCHEM_CACTVS_TPSA>
94.4

> <PUBCHEM_MONOISOTOPIC_WEIGHT>
432.17323058

> <PUBCHEM_TOTAL_CHARGE>
0

> <PUBCHEM_HEAVY_ATOM_COUNT>
31

> <PUBCHEM_ATOM_DEF_STEREO_COUNT>
0

> <PUBCHEM_ATOM_UDEF_STEREO_COUNT>
0

> <PUBCHEM_BOND_DEF_STEREO_COUNT>
0

> <PUBCHEM_BOND_UDEF_STEREO_COUNT>
0

> <PUBCHEM_ISOTOPIC_ATOM_COUNT>
0

> <PUBCHEM_COMPONENT_COUNT>
1

> <PUBCHEM_CACTVS_TAUTO_COUNT>
-1

> <PUBCHEM_COORDINATE_TYPE>
1
5
255

> <PUBCHEM_BONDANNOTATIONS>
1  20  8
1  26  8
15  18  8
15  19  8
18  20  8
18  21  8
19  22  8
20  23  8
21  26  8
22  23  8
25  28  8
27  29  8
28  30  8
29  30  8
5  24  8
5  7  8
6  24  8
6  25  8
6  27  8
7  25  8

$$$$
