23630999
  -OEChem-09292322252D

 62 66  0     1  0  0  0  0  0999 V2000
    7.0704   -1.1039    0.0000 S   0  0  0  0  0  0  0  0  0  0  0  0
   16.5065    1.9948    0.0000 O   0  0  0  0  0  0  0  0  0  0  0  0
   10.0704    0.6281    0.0000 N   0  0  3  0  0  0  0  0  0  0  0  0
   15.8403    1.2491    0.0000 N   0  0  0  0  0  0  0  0  0  0  0  0
    5.4826   -1.9129    0.0000 N   0  0  0  0  0  0  0  0  0  0  0  0
    5.4826   -0.2949    0.0000 N   0  0  0  0  0  0  0  0  0  0  0  0
    4.5316   -0.6039    0.0000 N   0  0  0  0  0  0  0  0  0  0  0  0
   10.5043    1.5291    0.0000 C   0  0  0  0  0  0  0  0  0  0  0  0
   10.5043   -0.2728    0.0000 C   0  0  0  0  0  0  0  0  0  0  0  0
   11.4792    1.7516    0.0000 C   0  0  0  0  0  0  0  0  0  0  0  0
   11.4792   -0.4953    0.0000 C   0  0  0  0  0  0  0  0  0  0  0  0
   12.2611    1.1281    0.0000 C   0  0  0  0  0  0  0  0  0  0  0  0
   12.2611    0.1281    0.0000 C   0  0  0  0  0  0  0  0  0  0  0  0
    9.0704    0.6281    0.0000 C   0  0  0  0  0  0  0  0  0  0  0  0
    8.5704   -0.2379    0.0000 C   0  0  0  0  0  0  0  0  0  0  0  0
   13.1550    1.6628    0.0000 C   0  0  0  0  0  0  0  0  0  0  0  0
   13.1550   -0.4065    0.0000 C   0  0  0  0  0  0  0  0  0  0  0  0
   14.0611    1.1490    0.0000 C   0  0  0  0  0  0  0  0  0  0  0  0
    7.5704   -0.2379    0.0000 C   0  0  0  0  0  0  0  0  0  0  0  0
   14.0611    0.1073    0.0000 C   0  0  0  0  0  0  0  0  0  0  0  0
   14.9252    1.6523    0.0000 C   0  0  0  0  0  0  0  0  0  0  0  0
   15.0259    2.6472    0.0000 C   0  0  0  0  0  0  0  0  0  0  0  0
    6.0704   -1.1039    0.0000 C   0  0  0  0  0  0  0  0  0  0  0  0
   16.0032    2.8589    0.0000 C   0  0  0  0  0  0  0  0  0  0  0  0
    4.5316   -1.6039    0.0000 C   0  0  0  0  0  0  0  0  0  0  0  0
    5.7916   -2.8640    0.0000 C   0  0  0  0  0  0  0  0  0  0  0  0
    3.7226   -2.1917    0.0000 C   0  0  0  0  0  0  0  0  0  0  0  0
   16.4064    3.7740    0.0000 C   0  0  0  0  0  0  0  0  0  0  0  0
    2.8090   -1.7850    0.0000 C   0  0  0  0  0  0  0  0  0  0  0  0
    3.8271   -3.1862    0.0000 C   0  0  0  0  0  0  0  0  0  0  0  0
    2.0000   -2.3727    0.0000 C   0  0  0  0  0  0  0  0  0  0  0  0
    3.0181   -3.7740    0.0000 C   0  0  0  0  0  0  0  0  0  0  0  0
    2.1045   -3.3673    0.0000 C   0  0  0  0  0  0  0  0  0  0  0  0
   10.5043    2.1491    0.0000 H   0  0  0  0  0  0  0  0  0  0  0  0
    9.8998    1.6671    0.0000 H   0  0  0  0  0  0  0  0  0  0  0  0
    9.8998   -0.4108    0.0000 H   0  0  0  0  0  0  0  0  0  0  0  0
   10.5043   -0.8928    0.0000 H   0  0  0  0  0  0  0  0  0  0  0  0
   11.9640    2.1382    0.0000 H   0  0  0  0  0  0  0  0  0  0  0  0
   11.2102    2.3102    0.0000 H   0  0  0  0  0  0  0  0  0  0  0  0
   11.2102   -1.0540    0.0000 H   0  0  0  0  0  0  0  0  0  0  0  0
   11.9640   -0.8819    0.0000 H   0  0  0  0  0  0  0  0  0  0  0  0
    9.1781    1.2387    0.0000 H   0  0  0  0  0  0  0  0  0  0  0  0
    8.4878    0.8402    0.0000 H   0  0  0  0  0  0  0  0  0  0  0  0
    8.4628   -0.8485    0.0000 H   0  0  0  0  0  0  0  0  0  0  0  0
    9.1530   -0.4499    0.0000 H   0  0  0  0  0  0  0  0  0  0  0  0
   13.1478    2.2828    0.0000 H   0  0  0  0  0  0  0  0  0  0  0  0
   13.1478   -1.0265    0.0000 H   0  0  0  0  0  0  0  0  0  0  0  0
    7.6781    0.3727    0.0000 H   0  0  0  0  0  0  0  0  0  0  0  0
    6.9878   -0.0258    0.0000 H   0  0  0  0  0  0  0  0  0  0  0  0
   14.5968   -0.2047    0.0000 H   0  0  0  0  0  0  0  0  0  0  0  0
   14.5635    3.0603    0.0000 H   0  0  0  0  0  0  0  0  0  0  0  0
    5.2020   -3.0556    0.0000 H   0  0  0  0  0  0  0  0  0  0  0  0
    5.9832   -3.4536    0.0000 H   0  0  0  0  0  0  0  0  0  0  0  0
    6.3813   -2.6724    0.0000 H   0  0  0  0  0  0  0  0  0  0  0  0
   16.9738    3.5240    0.0000 H   0  0  0  0  0  0  0  0  0  0  0  0
   16.6564    4.3414    0.0000 H   0  0  0  0  0  0  0  0  0  0  0  0
   15.8390    4.0240    0.0000 H   0  0  0  0  0  0  0  0  0  0  0  0
    2.7442   -1.1684    0.0000 H   0  0  0  0  0  0  0  0  0  0  0  0
    4.3935   -3.4384    0.0000 H   0  0  0  0  0  0  0  0  0  0  0  0
    1.4336   -2.1206    0.0000 H   0  0  0  0  0  0  0  0  0  0  0  0
    3.0829   -4.3906    0.0000 H   0  0  0  0  0  0  0  0  0  0  0  0
    1.6029   -3.7317    0.0000 H   0  0  0  0  0  0  0  0  0  0  0  0
  1 19  1  0  0  0  0
  1 23  1  0  0  0  0
  2  4  1  0  0  0  0
  2 24  1  0  0  0  0
  3  8  1  0  0  0  0
  3  9  1  0  0  0  0
  3 14  1  0  0  0  0
  4 21  2  0  0  0  0
  5 23  1  0  0  0  0
  5 25  1  0  0  0  0
  5 26  1  0  0  0  0
  6  7  1  0  0  0  0
  6 23  2  0  0  0  0
  7 25  2  0  0  0  0
  8 10  1  0  0  0  0
  8 34  1  0  0  0  0
  8 35  1  0  0  0  0
  9 11  1  0  0  0  0
  9 36  1  0  0  0  0
  9 37  1  0  0  0  0
 10 12  1  0  0  0  0
 10 38  1  0  0  0  0
 10 39  1  0  0  0  0
 11 13  1  0  0  0  0
 11 40  1  0  0  0  0
 11 41  1  0  0  0  0
 12 13  2  0  0  0  0
 12 16  1  0  0  0  0
 13 17  1  0  0  0  0
 14 15  1  0  0  0  0
 14 42  1  0  0  0  0
 14 43  1  0  0  0  0
 15 19  1  0  0  0  0
 15 44  1  0  0  0  0
 15 45  1  0  0  0  0
 16 18  2  0  0  0  0
 16 46  1  0  0  0  0
 17 20  2  0  0  0  0
 17 47  1  0  0  0  0
 18 20  1  0  0  0  0
 18 21  1  0  0  0  0
 19 48  1  0  0  0  0
 19 49  1  0  0  0  0
 20 50  1  0  0  0  0
 21 22  1  0  0  0  0
 22 24  2  0  0  0  0
 22 51  1  0  0  0  0
 24 28  1  0  0  0  0
 25 27  1  0  0  0  0
 26 52  1  0  0  0  0
 26 53  1  0  0  0  0
 26 54  1  0  0  0  0
 27 29  2  0  0  0  0
 27 30  1  0  0  0  0
 28 55  1  0  0  0  0
 28 56  1  0  0  0  0
 28 57  1  0  0  0  0
 29 31  1  0  0  0  0
 29 58  1  0  0  0  0
 30 32  2  0  0  0  0
 30 59  1  0  0  0  0
 31 33  2  0  0  0  0
 31 60  1  0  0  0  0
 32 33  1  0  0  0  0
 32 61  1  0  0  0  0
 33 62  1  0  0  0  0
M  END
> <PUBCHEM_COMPOUND_CID>
23630999

> <PUBCHEM_COMPOUND_CANONICALIZED>
1

> <PUBCHEM_CACTVS_COMPLEXITY>
605

> <PUBCHEM_CACTVS_HBOND_ACCEPTOR>
6

> <PUBCHEM_CACTVS_HBOND_DONOR>
0

> <PUBCHEM_CACTVS_ROTATABLE_BOND>
7

> <PUBCHEM_CACTVS_SUBSKEYS>
AAADceB7oABAAAAAAAAAAAAAAAAAAWLAAAAwYAAABYAAAAAB9AAAHgQMAAAADAzF3wSzlJccEAirA6ZyZgCS0AtkIrA92CE+bNqILrqgmZOEMYhmiBqIyUeYyOCOwAACAAAQAACAAAQAACAAAAAAAAAAAA==

> <PUBCHEM_IUPAC_OPENEYE_NAME>
5-methyl-3-[3-[3-[(4-methyl-5-phenyl-1,2,4-triazol-3-yl)sulfanyl]propyl]-1,2,4,5-tetrahydro-3-benzazepin-7-yl]isoxazole

> <PUBCHEM_IUPAC_CAS_NAME>
5-methyl-3-[3-[3-[(4-methyl-5-phenyl-1,2,4-triazol-3-yl)thio]propyl]-1,2,4,5-tetrahydro-3-benzazepin-7-yl]isoxazole

> <PUBCHEM_IUPAC_NAME_MARKUP>
5-methyl-3-[3-[3-[(4-methyl-5-phenyl-1,2,4-triazol-3-yl)sulfanyl]propyl]-1,2,4,5-tetrahydro-3-benzazepin-7-yl]-1,2-oxazole

> <PUBCHEM_IUPAC_NAME>
5-methyl-3-[3-[3-[(4-methyl-5-phenyl-1,2,4-triazol-3-yl)sulfanyl]propyl]-1,2,4,5-tetrahydro-3-benzazepin-7-yl]-1,2-oxazole

> <PUBCHEM_IUPAC_SYSTEMATIC_NAME>
5-methyl-3-[3-[3-[(4-methyl-5-phenyl-1,2,4-triazol-3-yl)sulfanyl]propyl]-1,2,4,5-tetrahydro-3-benzazepin-7-yl]-1,2-oxazole

> <PUBCHEM_IUPAC_TRADITIONAL_NAME>
5-methyl-3-[3-[3-[(4-methyl-5-phenyl-1,2,4-triazol-3-yl)thio]propyl]-1,2,4,5-tetrahydro-3-benzazepin-7-yl]isoxazole

> <PUBCHEM_IUPAC_INCHI>
InChI=1S/C26H29N5OS/c1-19-17-24(29-32-19)23-10-9-20-11-14-31(15-12-22(20)18-23)13-6-16-33-26-28-27-25(30(26)2)21-7-4-3-5-8-21/h3-5,7-10,17-18H,6,11-16H2,1-2H3

> <PUBCHEM_IUPAC_INCHIKEY>
CHUTWLUGUSZHNG-UHFFFAOYSA-N

> <PUBCHEM_XLOGP3_AA>
4.8

> <PUBCHEM_EXACT_MASS>
459.20928174

> <PUBCHEM_MOLECULAR_FORMULA>
C26H29N5OS

> <PUBCHEM_MOLECULAR_WEIGHT>
459.6

> <PUBCHEM_OPENEYE_CAN_SMILES>
CC1=CC(=NO1)C2=CC3=C(CCN(CC3)CCCSC4=NN=C(N4C)C5=CC=CC=C5)C=C2

> <PUBCHEM_OPENEYE_ISO_SMILES>
CC1=CC(=NO1)C2=CC3=C(CCN(CC3)CCCSC4=NN=C(N4C)C5=CC=CC=C5)C=C2

> <PUBCHEM_CACTVS_TPSA>
85.3

> <PUBCHEM_MONOISOTOPIC_WEIGHT>
459.20928174

> <PUBCHEM_TOTAL_CHARGE>
0

> <PUBCHEM_HEAVY_ATOM_COUNT>
33

> <PUBCHEM_ATOM_DEF_STEREO_COUNT>
0

> <PUBCHEM_ATOM_UDEF_STEREO_COUNT>
0

> <PUBCHEM_BOND_DEF_STEREO_COUNT>
0

> <PUBCHEM_BOND_UDEF_STEREO_COUNT>
0

> <PUBCHEM_ISOTOPIC_ATOM_COUNT>
0

> <PUBCHEM_COMPONENT_COUNT>
1

> <PUBCHEM_CACTVS_TAUTO_COUNT>
-1

> <PUBCHEM_COORDINATE_TYPE>
1
5
255

> <PUBCHEM_BONDANNOTATIONS>
12  13  8
12  16  8
13  17  8
16  18  8
17  20  8
18  20  8
2  24  8
2  4  8
21  22  8
22  24  8
27  29  8
27  30  8
29  31  8
30  32  8
31  33  8
32  33  8
4  21  8
5  23  8
5  25  8
6  23  8
6  7  8
7  25  8

$$$$
