168291978
  -OEChem-09292322442D

 57 61  0     0  0  0  0  0  0999 V2000
   10.2852   -2.8761    0.0000 Cl  0  0  0  0  0  0  0  0  0  0  0  0
   11.6208   -4.3647    0.0000 Cl  0  0  0  0  0  0  0  0  0  0  0  0
   10.9065   -0.9750    0.0000 N   0  0  0  0  0  0  0  0  0  0  0  0
    9.5708    0.5136    0.0000 N   0  0  0  0  0  0  0  0  0  0  0  0
    7.9244    1.0516    0.0000 N   0  0  0  0  0  0  0  0  0  0  0  0
    9.2136    2.2084    0.0000 N   0  0  0  0  0  0  0  0  0  0  0  0
    6.2781    1.5897    0.0000 N   0  0  0  0  0  0  0  0  0  0  0  0
    4.6783   -2.1270    0.0000 N   0  0  0  0  0  0  0  0  0  0  0  0
    7.5673    2.7465    0.0000 N   0  0  0  0  0  0  0  0  0  0  0  0
    8.8564    3.9032    0.0000 N   0  0  0  0  0  0  0  0  0  0  0  0
    9.9280   -1.1812    0.0000 C   0  0  0  0  0  0  0  0  0  0  0  0
   11.2171   -0.0245    0.0000 C   0  0  0  0  0  0  0  0  0  0  0  0
    9.2601   -0.4370    0.0000 C   0  0  0  0  0  0  0  0  0  0  0  0
   10.5493    0.7198    0.0000 C   0  0  0  0  0  0  0  0  0  0  0  0
   11.5743   -1.7193    0.0000 C   0  0  0  0  0  0  0  0  0  0  0  0
    8.9030    1.2579    0.0000 C   0  0  0  0  0  0  0  0  0  0  0  0
   11.2637   -2.6699    0.0000 C   0  0  0  0  0  0  0  0  0  0  0  0
   12.5528   -1.5131    0.0000 C   0  0  0  0  0  0  0  0  0  0  0  0
    4.9889    0.4330    0.0000 C   0  0  0  0  0  0  0  0  0  0  0  0
    4.6783   -0.5175    0.0000 C   0  0  0  0  0  0  0  0  0  0  0  0
    5.9674    0.6392    0.0000 C   0  0  0  0  0  0  0  0  0  0  0  0
    3.7320   -0.8223    0.0000 C   0  0  0  0  0  0  0  0  0  0  0  0
    7.2566    1.7960    0.0000 C   0  0  0  0  0  0  0  0  0  0  0  0
    3.7320   -1.8223    0.0000 C   0  0  0  0  0  0  0  0  0  0  0  0
   11.9315   -3.4142    0.0000 C   0  0  0  0  0  0  0  0  0  0  0  0
   13.2207   -2.2574    0.0000 C   0  0  0  0  0  0  0  0  0  0  0  0
    5.2619   -1.3223    0.0000 C   0  0  0  0  0  0  0  0  0  0  0  0
   12.9100   -3.2079    0.0000 C   0  0  0  0  0  0  0  0  0  0  0  0
    8.5458    2.9527    0.0000 C   0  0  0  0  0  0  0  0  0  0  0  0
    2.8660   -0.3223    0.0000 C   0  0  0  0  0  0  0  0  0  0  0  0
    2.8660   -2.3223    0.0000 C   0  0  0  0  0  0  0  0  0  0  0  0
    2.0000   -0.8223    0.0000 C   0  0  0  0  0  0  0  0  0  0  0  0
    2.0000   -1.8223    0.0000 C   0  0  0  0  0  0  0  0  0  0  0  0
    9.4016   -1.5089    0.0000 H   0  0  0  0  0  0  0  0  0  0  0  0
   10.1592   -1.7565    0.0000 H   0  0  0  0  0  0  0  0  0  0  0  0
   11.7641   -0.3165    0.0000 H   0  0  0  0  0  0  0  0  0  0  0  0
   11.5997    0.4634    0.0000 H   0  0  0  0  0  0  0  0  0  0  0  0
    8.7132   -0.1449    0.0000 H   0  0  0  0  0  0  0  0  0  0  0  0
    8.8776   -0.9249    0.0000 H   0  0  0  0  0  0  0  0  0  0  0  0
   11.0757    1.0474    0.0000 H   0  0  0  0  0  0  0  0  0  0  0  0
   10.3180    1.2950    0.0000 H   0  0  0  0  0  0  0  0  0  0  0  0
   12.7454   -0.9238    0.0000 H   0  0  0  0  0  0  0  0  0  0  0  0
    4.9684    1.0526    0.0000 H   0  0  0  0  0  0  0  0  0  0  0  0
    4.3751    0.5203    0.0000 H   0  0  0  0  0  0  0  0  0  0  0  0
    5.9880    0.0196    0.0000 H   0  0  0  0  0  0  0  0  0  0  0  0
    6.5812    0.5519    0.0000 H   0  0  0  0  0  0  0  0  0  0  0  0
    5.8640    2.0512    0.0000 H   0  0  0  0  0  0  0  0  0  0  0  0
   13.8274   -2.1296    0.0000 H   0  0  0  0  0  0  0  0  0  0  0  0
    5.8819   -1.3223    0.0000 H   0  0  0  0  0  0  0  0  0  0  0  0
    4.8709   -2.7163    0.0000 H   0  0  0  0  0  0  0  0  0  0  0  0
   13.3241   -3.6694    0.0000 H   0  0  0  0  0  0  0  0  0  0  0  0
    2.8660    0.2977    0.0000 H   0  0  0  0  0  0  0  0  0  0  0  0
    2.8660   -2.9423    0.0000 H   0  0  0  0  0  0  0  0  0  0  0  0
    1.4631   -0.5123    0.0000 H   0  0  0  0  0  0  0  0  0  0  0  0
    1.4631   -2.1323    0.0000 H   0  0  0  0  0  0  0  0  0  0  0  0
    8.4424    4.3647    0.0000 H   0  0  0  0  0  0  0  0  0  0  0  0
    9.4631    4.0311    0.0000 H   0  0  0  0  0  0  0  0  0  0  0  0
  1 17  1  0  0  0  0
  2 25  1  0  0  0  0
  3 11  1  0  0  0  0
  3 12  1  0  0  0  0
  3 15  1  0  0  0  0
  4 13  1  0  0  0  0
  4 14  1  0  0  0  0
  4 16  1  0  0  0  0
  5 16  1  0  0  0  0
  5 23  2  0  0  0  0
  6 16  2  0  0  0  0
  6 29  1  0  0  0  0
  7 21  1  0  0  0  0
  7 23  1  0  0  0  0
  7 47  1  0  0  0  0
  8 24  1  0  0  0  0
  8 27  1  0  0  0  0
  8 50  1  0  0  0  0
  9 23  1  0  0  0  0
  9 29  2  0  0  0  0
 10 29  1  0  0  0  0
 10 56  1  0  0  0  0
 10 57  1  0  0  0  0
 11 13  1  0  0  0  0
 11 34  1  0  0  0  0
 11 35  1  0  0  0  0
 12 14  1  0  0  0  0
 12 36  1  0  0  0  0
 12 37  1  0  0  0  0
 13 38  1  0  0  0  0
 13 39  1  0  0  0  0
 14 40  1  0  0  0  0
 14 41  1  0  0  0  0
 15 17  2  0  0  0  0
 15 18  1  0  0  0  0
 17 25  1  0  0  0  0
 18 26  2  0  0  0  0
 18 42  1  0  0  0  0
 19 20  1  0  0  0  0
 19 21  1  0  0  0  0
 19 43  1  0  0  0  0
 19 44  1  0  0  0  0
 20 22  1  0  0  0  0
 20 27  2  0  0  0  0
 21 45  1  0  0  0  0
 21 46  1  0  0  0  0
 22 24  1  0  0  0  0
 22 30  2  0  0  0  0
 24 31  2  0  0  0  0
 25 28  2  0  0  0  0
 26 28  1  0  0  0  0
 26 48  1  0  0  0  0
 27 49  1  0  0  0  0
 28 51  1  0  0  0  0
 30 32  1  0  0  0  0
 30 52  1  0  0  0  0
 31 33  1  0  0  0  0
 31 53  1  0  0  0  0
 32 33  2  0  0  0  0
 32 54  1  0  0  0  0
 33 55  1  0  0  0  0
M  END
> <PUBCHEM_COMPOUND_CID>
168291978

> <PUBCHEM_COMPOUND_CANONICALIZED>
1

> <PUBCHEM_CACTVS_COMPLEXITY>
621

> <PUBCHEM_CACTVS_HBOND_ACCEPTOR>
7

> <PUBCHEM_CACTVS_HBOND_DONOR>
3

> <PUBCHEM_CACTVS_ROTATABLE_BOND>
6

> <PUBCHEM_CACTVS_SUBSKEYS>
AAADceB7wAAGAAAAAAAAAAAAAAAAAWAAAAA8eIEAAAAAAFgB/AAAHAIQAAAADArBHiQ90PfJkACgAzRnZACCgCkxB6AJ2+A4ZpiIaOLBm5HUIAhokALIyAcQgMAOgAAAAAICABQAAAAABAQAKAAAAAAAAA==

> <PUBCHEM_IUPAC_OPENEYE_NAME>
6-[4-(2,3-dichlorophenyl)piperazin-1-yl]-N2-[2-(1H-indol-3-yl)ethyl]-1,3,5-triazine-2,4-diamine

> <PUBCHEM_IUPAC_CAS_NAME>
6-[4-(2,3-dichlorophenyl)-1-piperazinyl]-N2-[2-(1H-indol-3-yl)ethyl]-1,3,5-triazine-2,4-diamine

> <PUBCHEM_IUPAC_NAME_MARKUP>
6-[4-(2,3-dichlorophenyl)piperazin-1-yl]-2-<I>N</I>-[2-(1<I>H</I>-indol-3-yl)ethyl]-1,3,5-triazine-2,4-diamine

> <PUBCHEM_IUPAC_NAME>
6-[4-(2,3-dichlorophenyl)piperazin-1-yl]-2-N-[2-(1H-indol-3-yl)ethyl]-1,3,5-triazine-2,4-diamine

> <PUBCHEM_IUPAC_SYSTEMATIC_NAME>
6-[4-[2,3-bis(chloranyl)phenyl]piperazin-1-yl]-N2-[2-(1H-indol-3-yl)ethyl]-1,3,5-triazine-2,4-diamine

> <PUBCHEM_IUPAC_TRADITIONAL_NAME>
[4-amino-6-[4-(2,3-dichlorophenyl)piperazino]-s-triazin-2-yl]-[2-(1H-indol-3-yl)ethyl]amine

> <PUBCHEM_IUPAC_INCHI>
InChI=1S/C23H24Cl2N8/c24-17-5-3-7-19(20(17)25)32-10-12-33(13-11-32)23-30-21(26)29-22(31-23)27-9-8-15-14-28-18-6-2-1-4-16(15)18/h1-7,14,28H,8-13H2,(H3,26,27,29,30,31)

> <PUBCHEM_IUPAC_INCHIKEY>
KMXCBWFCHIVUJL-UHFFFAOYSA-N

> <PUBCHEM_XLOGP3_AA>
5.3

> <PUBCHEM_EXACT_MASS>
482.1500982

> <PUBCHEM_MOLECULAR_FORMULA>
C23H24Cl2N8

> <PUBCHEM_MOLECULAR_WEIGHT>
483.4

> <PUBCHEM_OPENEYE_CAN_SMILES>
C1CN(CCN1C2=C(C(=CC=C2)Cl)Cl)C3=NC(=NC(=N3)NCCC4=CNC5=CC=CC=C54)N

> <PUBCHEM_OPENEYE_ISO_SMILES>
C1CN(CCN1C2=C(C(=CC=C2)Cl)Cl)C3=NC(=NC(=N3)NCCC4=CNC5=CC=CC=C54)N

> <PUBCHEM_CACTVS_TPSA>
99

> <PUBCHEM_MONOISOTOPIC_WEIGHT>
482.1500982

> <PUBCHEM_TOTAL_CHARGE>
0

> <PUBCHEM_HEAVY_ATOM_COUNT>
33

> <PUBCHEM_ATOM_DEF_STEREO_COUNT>
0

> <PUBCHEM_ATOM_UDEF_STEREO_COUNT>
0

> <PUBCHEM_BOND_DEF_STEREO_COUNT>
0

> <PUBCHEM_BOND_UDEF_STEREO_COUNT>
0

> <PUBCHEM_ISOTOPIC_ATOM_COUNT>
0

> <PUBCHEM_COMPONENT_COUNT>
1

> <PUBCHEM_CACTVS_TAUTO_COUNT>
-1

> <PUBCHEM_COORDINATE_TYPE>
1
5
255

> <PUBCHEM_BONDANNOTATIONS>
15  17  8
15  18  8
17  25  8
18  26  8
20  22  8
20  27  8
22  24  8
22  30  8
24  31  8
25  28  8
26  28  8
30  32  8
31  33  8
32  33  8
5  16  8
5  23  8
6  16  8
6  29  8
8  24  8
8  27  8
9  23  8
9  29  8

$$$$
