9954121
  -OEChem-09292322152D

 58 61  0     0  0  0  0  0  0999 V2000
    6.3301   -0.6442    0.0000 S   0  0  0  0  0  0  0  0  0  0  0  0
    5.8301    0.2218    0.0000 O   0  0  0  0  0  0  0  0  0  0  0  0
    6.8301   -1.5102    0.0000 O   0  0  0  0  0  0  0  0  0  0  0  0
   10.6766    0.8904    0.0000 N   0  0  0  0  0  0  0  0  0  0  0  0
   10.6535    2.8903    0.0000 N   0  0  0  0  0  0  0  0  0  0  0  0
    7.1962   -0.1442    0.0000 N   0  0  0  0  0  0  0  0  0  0  0  0
   10.6882   -2.1789    0.0000 N   0  0  0  0  0  0  0  0  0  0  0  0
   11.5368    1.4004    0.0000 C   0  0  0  0  0  0  0  0  0  0  0  0
    9.8049    1.3804    0.0000 C   0  0  0  0  0  0  0  0  0  0  0  0
   11.5252    2.4003    0.0000 C   0  0  0  0  0  0  0  0  0  0  0  0
    9.7933    2.3803    0.0000 C   0  0  0  0  0  0  0  0  0  0  0  0
    2.8660   -2.6442    0.0000 C   0  0  0  0  0  0  0  0  0  0  0  0
   10.6882   -0.1095    0.0000 C   0  0  0  0  0  0  0  0  0  0  0  0
    3.7320   -2.1442    0.0000 C   0  0  0  0  0  0  0  0  0  0  0  0
    9.7942   -0.6442    0.0000 C   0  0  0  0  0  0  0  0  0  0  0  0
    2.0000   -3.1442    0.0000 C   0  0  0  0  0  0  0  0  0  0  0  0
    2.3660   -1.7782    0.0000 C   0  0  0  0  0  0  0  0  0  0  0  0
    3.3660   -3.5102    0.0000 C   0  0  0  0  0  0  0  0  0  0  0  0
    9.7942   -1.6442    0.0000 C   0  0  0  0  0  0  0  0  0  0  0  0
   11.5942   -0.6234    0.0000 C   0  0  0  0  0  0  0  0  0  0  0  0
    8.9282   -0.1442    0.0000 C   0  0  0  0  0  0  0  0  0  0  0  0
    3.7320   -1.1442    0.0000 C   0  0  0  0  0  0  0  0  0  0  0  0
    4.5981   -2.6442    0.0000 C   0  0  0  0  0  0  0  0  0  0  0  0
    5.4641   -1.1442    0.0000 C   0  0  0  0  0  0  0  0  0  0  0  0
    8.0622   -0.6442    0.0000 C   0  0  0  0  0  0  0  0  0  0  0  0
    4.5981   -0.6442    0.0000 C   0  0  0  0  0  0  0  0  0  0  0  0
    5.4641   -2.1442    0.0000 C   0  0  0  0  0  0  0  0  0  0  0  0
    8.9282   -2.1442    0.0000 C   0  0  0  0  0  0  0  0  0  0  0  0
    8.0622   -1.6442    0.0000 C   0  0  0  0  0  0  0  0  0  0  0  0
   11.5942   -1.6650    0.0000 C   0  0  0  0  0  0  0  0  0  0  0  0
   11.7556    0.8203    0.0000 H   0  0  0  0  0  0  0  0  0  0  0  0
   12.1461    1.5151    0.0000 H   0  0  0  0  0  0  0  0  0  0  0  0
    9.1931    1.4809    0.0000 H   0  0  0  0  0  0  0  0  0  0  0  0
    9.5996    0.7953    0.0000 H   0  0  0  0  0  0  0  0  0  0  0  0
   12.1370    2.2997    0.0000 H   0  0  0  0  0  0  0  0  0  0  0  0
   11.7305    2.9853    0.0000 H   0  0  0  0  0  0  0  0  0  0  0  0
    9.5745    2.9604    0.0000 H   0  0  0  0  0  0  0  0  0  0  0  0
    9.1840    2.2656    0.0000 H   0  0  0  0  0  0  0  0  0  0  0  0
   10.6463    3.5102    0.0000 H   0  0  0  0  0  0  0  0  0  0  0  0
    1.6900   -2.6073    0.0000 H   0  0  0  0  0  0  0  0  0  0  0  0
    1.4631   -3.4542    0.0000 H   0  0  0  0  0  0  0  0  0  0  0  0
    2.3100   -3.6811    0.0000 H   0  0  0  0  0  0  0  0  0  0  0  0
    2.9030   -1.4682    0.0000 H   0  0  0  0  0  0  0  0  0  0  0  0
    2.0560   -1.2412    0.0000 H   0  0  0  0  0  0  0  0  0  0  0  0
    1.8291   -2.0882    0.0000 H   0  0  0  0  0  0  0  0  0  0  0  0
    2.8291   -3.8202    0.0000 H   0  0  0  0  0  0  0  0  0  0  0  0
    3.6760   -4.0472    0.0000 H   0  0  0  0  0  0  0  0  0  0  0  0
    3.9030   -3.2002    0.0000 H   0  0  0  0  0  0  0  0  0  0  0  0
   12.1300   -0.3113    0.0000 H   0  0  0  0  0  0  0  0  0  0  0  0
    8.9282    0.4758    0.0000 H   0  0  0  0  0  0  0  0  0  0  0  0
    3.1951   -0.8342    0.0000 H   0  0  0  0  0  0  0  0  0  0  0  0
    4.5981   -3.2642    0.0000 H   0  0  0  0  0  0  0  0  0  0  0  0
    4.5981   -0.0242    0.0000 H   0  0  0  0  0  0  0  0  0  0  0  0
    6.0010   -2.4542    0.0000 H   0  0  0  0  0  0  0  0  0  0  0  0
    7.1962    0.4758    0.0000 H   0  0  0  0  0  0  0  0  0  0  0  0
    8.9282   -2.7642    0.0000 H   0  0  0  0  0  0  0  0  0  0  0  0
    7.5252   -1.9542    0.0000 H   0  0  0  0  0  0  0  0  0  0  0  0
   12.1300   -1.9771    0.0000 H   0  0  0  0  0  0  0  0  0  0  0  0
  1  2  2  0  0  0  0
  1  3  2  0  0  0  0
  1  6  1  0  0  0  0
  1 24  1  0  0  0  0
  4  8  1  0  0  0  0
  4  9  1  0  0  0  0
  4 13  1  0  0  0  0
  5 10  1  0  0  0  0
  5 11  1  0  0  0  0
  5 39  1  0  0  0  0
  6 25  1  0  0  0  0
  6 55  1  0  0  0  0
  7 19  2  0  0  0  0
  7 30  1  0  0  0  0
  8 10  1  0  0  0  0
  8 31  1  0  0  0  0
  8 32  1  0  0  0  0
  9 11  1  0  0  0  0
  9 33  1  0  0  0  0
  9 34  1  0  0  0  0
 10 35  1  0  0  0  0
 10 36  1  0  0  0  0
 11 37  1  0  0  0  0
 11 38  1  0  0  0  0
 12 14  1  0  0  0  0
 12 16  1  0  0  0  0
 12 17  1  0  0  0  0
 12 18  1  0  0  0  0
 13 15  2  0  0  0  0
 13 20  1  0  0  0  0
 14 22  2  0  0  0  0
 14 23  1  0  0  0  0
 15 19  1  0  0  0  0
 15 21  1  0  0  0  0
 16 40  1  0  0  0  0
 16 41  1  0  0  0  0
 16 42  1  0  0  0  0
 17 43  1  0  0  0  0
 17 44  1  0  0  0  0
 17 45  1  0  0  0  0
 18 46  1  0  0  0  0
 18 47  1  0  0  0  0
 18 48  1  0  0  0  0
 19 28  1  0  0  0  0
 20 30  2  0  0  0  0
 20 49  1  0  0  0  0
 21 25  2  0  0  0  0
 21 50  1  0  0  0  0
 22 26  1  0  0  0  0
 22 51  1  0  0  0  0
 23 27  2  0  0  0  0
 23 52  1  0  0  0  0
 24 26  2  0  0  0  0
 24 27  1  0  0  0  0
 25 29  1  0  0  0  0
 26 53  1  0  0  0  0
 27 54  1  0  0  0  0
 28 29  2  0  0  0  0
 28 56  1  0  0  0  0
 29 57  1  0  0  0  0
 30 58  1  0  0  0  0
M  END
> <PUBCHEM_COMPOUND_CID>
9954121

> <PUBCHEM_COMPOUND_CANONICALIZED>
1

> <PUBCHEM_CACTVS_COMPLEXITY>
658

> <PUBCHEM_CACTVS_HBOND_ACCEPTOR>
6

> <PUBCHEM_CACTVS_HBOND_DONOR>
2

> <PUBCHEM_CACTVS_ROTATABLE_BOND>
5

> <PUBCHEM_CACTVS_SUBSKEYS>
AAADceB7sABAAAAAAAAAAAAAAAAAAAAAAAA8eIEAAAAAAACx9AAAHAQQQAAADgjBXgQ+wfPIEAKgAzRnRHDCgDAxAiAI2Lg4ZJgIYOLA0dGUJAhgkADIyAcQgMAPkACAQAACAAAgAQCAAAQAAAAAAAAAAA==

> <PUBCHEM_IUPAC_OPENEYE_NAME>
4-tert-butyl-N-(4-piperazin-1-yl-6-quinolyl)benzenesulfonamide

> <PUBCHEM_IUPAC_CAS_NAME>
4-tert-butyl-N-[4-(1-piperazinyl)-6-quinolinyl]benzenesulfonamide

> <PUBCHEM_IUPAC_NAME_MARKUP>
4-<I>tert</I>-butyl-<I>N</I>-(4-piperazin-1-ylquinolin-6-yl)benzenesulfonamide

> <PUBCHEM_IUPAC_NAME>
4-tert-butyl-N-(4-piperazin-1-ylquinolin-6-yl)benzenesulfonamide

> <PUBCHEM_IUPAC_SYSTEMATIC_NAME>
4-tert-butyl-N-(4-piperazin-1-ylquinolin-6-yl)benzenesulfonamide

> <PUBCHEM_IUPAC_TRADITIONAL_NAME>
4-tert-butyl-N-(4-piperazino-6-quinolyl)benzenesulfonamide

> <PUBCHEM_IUPAC_INCHI>
InChI=1S/C23H28N4O2S/c1-23(2,3)17-4-7-19(8-5-17)30(28,29)26-18-6-9-21-20(16-18)22(10-11-25-21)27-14-12-24-13-15-27/h4-11,16,24,26H,12-15H2,1-3H3

> <PUBCHEM_IUPAC_INCHIKEY>
SHILVAMBAMVDBR-UHFFFAOYSA-N

> <PUBCHEM_XLOGP3_AA>
3.9

> <PUBCHEM_EXACT_MASS>
424.19329732

> <PUBCHEM_MOLECULAR_FORMULA>
C23H28N4O2S

> <PUBCHEM_MOLECULAR_WEIGHT>
424.6

> <PUBCHEM_OPENEYE_CAN_SMILES>
CC(C)(C)C1=CC=C(C=C1)S(=O)(=O)NC2=CC3=C(C=CN=C3C=C2)N4CCNCC4

> <PUBCHEM_OPENEYE_ISO_SMILES>
CC(C)(C)C1=CC=C(C=C1)S(=O)(=O)NC2=CC3=C(C=CN=C3C=C2)N4CCNCC4

> <PUBCHEM_CACTVS_TPSA>
82.7

> <PUBCHEM_MONOISOTOPIC_WEIGHT>
424.19329732

> <PUBCHEM_TOTAL_CHARGE>
0

> <PUBCHEM_HEAVY_ATOM_COUNT>
30

> <PUBCHEM_ATOM_DEF_STEREO_COUNT>
0

> <PUBCHEM_ATOM_UDEF_STEREO_COUNT>
0

> <PUBCHEM_BOND_DEF_STEREO_COUNT>
0

> <PUBCHEM_BOND_UDEF_STEREO_COUNT>
0

> <PUBCHEM_ISOTOPIC_ATOM_COUNT>
0

> <PUBCHEM_COMPONENT_COUNT>
1

> <PUBCHEM_CACTVS_TAUTO_COUNT>
-1

> <PUBCHEM_COORDINATE_TYPE>
1
5
255

> <PUBCHEM_BONDANNOTATIONS>
13  15  8
13  20  8
14  22  8
14  23  8
15  19  8
15  21  8
19  28  8
20  30  8
21  25  8
22  26  8
23  27  8
24  26  8
24  27  8
25  29  8
28  29  8
7  19  8
7  30  8

$$$$
