137640376
  -OEChem-09292322472D

 66 70  0     0  0  0  0  0  0999 V2000
    6.3301    2.1719    0.0000 S   0  0  0  0  0  0  0  0  0  0  0  0
    2.8660   -5.2423    0.0000 O   0  0  0  0  0  0  0  0  0  0  0  0
    4.5981   -4.2423    0.0000 N   0  0  0  0  0  0  0  0  0  0  0  0
    4.5981   -0.8281    0.0000 N   0  0  0  0  0  0  0  0  0  0  0  0
    5.5211    3.7597    0.0000 N   0  0  0  0  0  0  0  0  0  0  0  0
    7.1391    3.7597    0.0000 N   0  0  0  0  0  0  0  0  0  0  0  0
    6.8301    4.7107    0.0000 N   0  0  0  0  0  0  0  0  0  0  0  0
    4.5981   -2.8281    0.0000 C   0  0  0  0  0  0  0  0  0  0  0  0
    3.8910   -3.5352    0.0000 C   0  0  0  0  0  0  0  0  0  0  0  0
    5.3052   -3.5352    0.0000 C   0  0  0  0  0  0  0  0  0  0  0  0
    5.4641   -2.3281    0.0000 C   0  0  0  0  0  0  0  0  0  0  0  0
    3.7320   -2.3281    0.0000 C   0  0  0  0  0  0  0  0  0  0  0  0
    5.4641   -1.3281    0.0000 C   0  0  0  0  0  0  0  0  0  0  0  0
    3.7320   -1.3281    0.0000 C   0  0  0  0  0  0  0  0  0  0  0  0
    4.5981   -5.2423    0.0000 C   0  0  0  0  0  0  0  0  0  0  0  0
    4.5981    0.1719    0.0000 C   0  0  0  0  0  0  0  0  0  0  0  0
    5.4641    0.6719    0.0000 C   0  0  0  0  0  0  0  0  0  0  0  0
    3.7320   -5.7423    0.0000 C   0  0  0  0  0  0  0  0  0  0  0  0
    5.4641   -5.7423    0.0000 C   0  0  0  0  0  0  0  0  0  0  0  0
    5.4641    1.6719    0.0000 C   0  0  0  0  0  0  0  0  0  0  0  0
    3.7320   -6.7423    0.0000 C   0  0  0  0  0  0  0  0  0  0  0  0
    5.4641   -6.7423    0.0000 C   0  0  0  0  0  0  0  0  0  0  0  0
    4.5981   -7.2423    0.0000 C   0  0  0  0  0  0  0  0  0  0  0  0
    2.0000   -5.7423    0.0000 C   0  0  0  0  0  0  0  0  0  0  0  0
    6.3301    3.1719    0.0000 C   0  0  0  0  0  0  0  0  0  0  0  0
    5.8301    4.7107    0.0000 C   0  0  0  0  0  0  0  0  0  0  0  0
    4.5700    3.4507    0.0000 C   0  0  0  0  0  0  0  0  0  0  0  0
    5.2423    5.5198    0.0000 C   0  0  0  0  0  0  0  0  0  0  0  0
    5.6491    6.4333    0.0000 C   0  0  0  0  0  0  0  0  0  0  0  0
    4.2478    5.4152    0.0000 C   0  0  0  0  0  0  0  0  0  0  0  0
    5.0613    7.2423    0.0000 C   0  0  0  0  0  0  0  0  0  0  0  0
    3.6600    6.2242    0.0000 C   0  0  0  0  0  0  0  0  0  0  0  0
    4.0668    7.1378    0.0000 C   0  0  0  0  0  0  0  0  0  0  0  0
    3.4526   -3.0968    0.0000 H   0  0  0  0  0  0  0  0  0  0  0  0
    3.4526   -3.9736    0.0000 H   0  0  0  0  0  0  0  0  0  0  0  0
    5.7436   -3.9736    0.0000 H   0  0  0  0  0  0  0  0  0  0  0  0
    5.7436   -3.0968    0.0000 H   0  0  0  0  0  0  0  0  0  0  0  0
    5.6762   -2.9107    0.0000 H   0  0  0  0  0  0  0  0  0  0  0  0
    6.0747   -2.2204    0.0000 H   0  0  0  0  0  0  0  0  0  0  0  0
    3.1215   -2.2204    0.0000 H   0  0  0  0  0  0  0  0  0  0  0  0
    3.5200   -2.9107    0.0000 H   0  0  0  0  0  0  0  0  0  0  0  0
    6.0747   -1.4358    0.0000 H   0  0  0  0  0  0  0  0  0  0  0  0
    5.6762   -0.7455    0.0000 H   0  0  0  0  0  0  0  0  0  0  0  0
    3.5200   -0.7455    0.0000 H   0  0  0  0  0  0  0  0  0  0  0  0
    3.1215   -1.4358    0.0000 H   0  0  0  0  0  0  0  0  0  0  0  0
    4.3860    0.7545    0.0000 H   0  0  0  0  0  0  0  0  0  0  0  0
    3.9875    0.0642    0.0000 H   0  0  0  0  0  0  0  0  0  0  0  0
    5.6762    0.0893    0.0000 H   0  0  0  0  0  0  0  0  0  0  0  0
    6.0747    0.7796    0.0000 H   0  0  0  0  0  0  0  0  0  0  0  0
    6.0010   -5.4323    0.0000 H   0  0  0  0  0  0  0  0  0  0  0  0
    5.2520    2.2545    0.0000 H   0  0  0  0  0  0  0  0  0  0  0  0
    4.8535    1.5642    0.0000 H   0  0  0  0  0  0  0  0  0  0  0  0
    3.1951   -7.0523    0.0000 H   0  0  0  0  0  0  0  0  0  0  0  0
    6.0010   -7.0523    0.0000 H   0  0  0  0  0  0  0  0  0  0  0  0
    4.5981   -7.8623    0.0000 H   0  0  0  0  0  0  0  0  0  0  0  0
    1.6900   -5.2054    0.0000 H   0  0  0  0  0  0  0  0  0  0  0  0
    1.4631   -6.0523    0.0000 H   0  0  0  0  0  0  0  0  0  0  0  0
    2.3100   -6.2792    0.0000 H   0  0  0  0  0  0  0  0  0  0  0  0
    4.3785    4.0403    0.0000 H   0  0  0  0  0  0  0  0  0  0  0  0
    3.9804    3.2591    0.0000 H   0  0  0  0  0  0  0  0  0  0  0  0
    4.7616    2.8610    0.0000 H   0  0  0  0  0  0  0  0  0  0  0  0
    6.2657    6.4981    0.0000 H   0  0  0  0  0  0  0  0  0  0  0  0
    3.9956    4.8488    0.0000 H   0  0  0  0  0  0  0  0  0  0  0  0
    5.3135    7.8087    0.0000 H   0  0  0  0  0  0  0  0  0  0  0  0
    3.0434    6.1594    0.0000 H   0  0  0  0  0  0  0  0  0  0  0  0
    3.7023    7.6394    0.0000 H   0  0  0  0  0  0  0  0  0  0  0  0
  1 20  1  0  0  0  0
  1 25  1  0  0  0  0
  2 18  1  0  0  0  0
  2 24  1  0  0  0  0
  3  9  1  0  0  0  0
  3 10  1  0  0  0  0
  3 15  1  0  0  0  0
  4 13  1  0  0  0  0
  4 14  1  0  0  0  0
  4 16  1  0  0  0  0
  5 25  1  0  0  0  0
  5 26  1  0  0  0  0
  5 27  1  0  0  0  0
  6  7  1  0  0  0  0
  6 25  2  0  0  0  0
  7 26  2  0  0  0  0
  8  9  1  0  0  0  0
  8 10  1  0  0  0  0
  8 11  1  0  0  0  0
  8 12  1  0  0  0  0
  9 34  1  0  0  0  0
  9 35  1  0  0  0  0
 10 36  1  0  0  0  0
 10 37  1  0  0  0  0
 11 13  1  0  0  0  0
 11 38  1  0  0  0  0
 11 39  1  0  0  0  0
 12 14  1  0  0  0  0
 12 40  1  0  0  0  0
 12 41  1  0  0  0  0
 13 42  1  0  0  0  0
 13 43  1  0  0  0  0
 14 44  1  0  0  0  0
 14 45  1  0  0  0  0
 15 18  1  0  0  0  0
 15 19  2  0  0  0  0
 16 17  1  0  0  0  0
 16 46  1  0  0  0  0
 16 47  1  0  0  0  0
 17 20  1  0  0  0  0
 17 48  1  0  0  0  0
 17 49  1  0  0  0  0
 18 21  2  0  0  0  0
 19 22  1  0  0  0  0
 19 50  1  0  0  0  0
 20 51  1  0  0  0  0
 20 52  1  0  0  0  0
 21 23  1  0  0  0  0
 21 53  1  0  0  0  0
 22 23  2  0  0  0  0
 22 54  1  0  0  0  0
 23 55  1  0  0  0  0
 24 56  1  0  0  0  0
 24 57  1  0  0  0  0
 24 58  1  0  0  0  0
 26 28  1  0  0  0  0
 27 59  1  0  0  0  0
 27 60  1  0  0  0  0
 27 61  1  0  0  0  0
 28 29  2  0  0  0  0
 28 30  1  0  0  0  0
 29 31  1  0  0  0  0
 29 62  1  0  0  0  0
 30 32  2  0  0  0  0
 30 63  1  0  0  0  0
 31 33  2  0  0  0  0
 31 64  1  0  0  0  0
 32 33  1  0  0  0  0
 32 65  1  0  0  0  0
 33 66  1  0  0  0  0
M  END
> <PUBCHEM_COMPOUND_CID>
137640376

> <PUBCHEM_COMPOUND_CANONICALIZED>
1

> <PUBCHEM_CACTVS_COMPLEXITY>
602

> <PUBCHEM_CACTVS_HBOND_ACCEPTOR>
6

> <PUBCHEM_CACTVS_HBOND_DONOR>
0

> <PUBCHEM_CACTVS_ROTATABLE_BOND>
8

> <PUBCHEM_CACTVS_SUBSKEYS>
AAADcfB7oABAAAAAAAAAAAAAAABYAWAAAAA8YIAAAAAAAAAB0AAAHgQIAAAADgzF2waz1ocMFAiiAiZiZACS2AthIrAdyCAvbJiOLqLkuZuFMChkyBPY6AeQwAAPAAAAAAAAEAAAAAAAAAAgAAAAAAAAAA==

> <PUBCHEM_IUPAC_OPENEYE_NAME>
2-(2-methoxyphenyl)-7-[3-[(4-methyl-5-phenyl-1,2,4-triazol-3-yl)sulfanyl]propyl]-2,7-diazaspiro[3.5]nonane

> <PUBCHEM_IUPAC_CAS_NAME>
2-(2-methoxyphenyl)-7-[3-[(4-methyl-5-phenyl-1,2,4-triazol-3-yl)thio]propyl]-2,7-diazaspiro[3.5]nonane

> <PUBCHEM_IUPAC_NAME_MARKUP>
2-(2-methoxyphenyl)-7-[3-[(4-methyl-5-phenyl-1,2,4-triazol-3-yl)sulfanyl]propyl]-2,7-diazaspiro[3.5]nonane

> <PUBCHEM_IUPAC_NAME>
2-(2-methoxyphenyl)-7-[3-[(4-methyl-5-phenyl-1,2,4-triazol-3-yl)sulfanyl]propyl]-2,7-diazaspiro[3.5]nonane

> <PUBCHEM_IUPAC_SYSTEMATIC_NAME>
2-(2-methoxyphenyl)-7-[3-[(4-methyl-5-phenyl-1,2,4-triazol-3-yl)sulfanyl]propyl]-2,7-diazaspiro[3.5]nonane

> <PUBCHEM_IUPAC_TRADITIONAL_NAME>
2-(2-methoxyphenyl)-7-[3-[(4-methyl-5-phenyl-1,2,4-triazol-3-yl)thio]propyl]-2,7-diazaspiro[3.5]nonane

> <PUBCHEM_IUPAC_INCHI>
InChI=1S/C26H33N5OS/c1-29-24(21-9-4-3-5-10-21)27-28-25(29)33-18-8-15-30-16-13-26(14-17-30)19-31(20-26)22-11-6-7-12-23(22)32-2/h3-7,9-12H,8,13-20H2,1-2H3

> <PUBCHEM_IUPAC_INCHIKEY>
AZLZBFGPTAMGJG-UHFFFAOYSA-N

> <PUBCHEM_XLOGP3_AA>
4.5

> <PUBCHEM_EXACT_MASS>
463.24058187

> <PUBCHEM_MOLECULAR_FORMULA>
C26H33N5OS

> <PUBCHEM_MOLECULAR_WEIGHT>
463.6

> <PUBCHEM_OPENEYE_CAN_SMILES>
CN1C(=NN=C1SCCCN2CCC3(CC2)CN(C3)C4=CC=CC=C4OC)C5=CC=CC=C5

> <PUBCHEM_OPENEYE_ISO_SMILES>
CN1C(=NN=C1SCCCN2CCC3(CC2)CN(C3)C4=CC=CC=C4OC)C5=CC=CC=C5

> <PUBCHEM_CACTVS_TPSA>
71.7

> <PUBCHEM_MONOISOTOPIC_WEIGHT>
463.24058187

> <PUBCHEM_TOTAL_CHARGE>
0

> <PUBCHEM_HEAVY_ATOM_COUNT>
33

> <PUBCHEM_ATOM_DEF_STEREO_COUNT>
0

> <PUBCHEM_ATOM_UDEF_STEREO_COUNT>
0

> <PUBCHEM_BOND_DEF_STEREO_COUNT>
0

> <PUBCHEM_BOND_UDEF_STEREO_COUNT>
0

> <PUBCHEM_ISOTOPIC_ATOM_COUNT>
0

> <PUBCHEM_COMPONENT_COUNT>
1

> <PUBCHEM_CACTVS_TAUTO_COUNT>
-1

> <PUBCHEM_COORDINATE_TYPE>
1
5
255

> <PUBCHEM_BONDANNOTATIONS>
15  18  8
15  19  8
18  21  8
19  22  8
21  23  8
22  23  8
28  29  8
28  30  8
29  31  8
30  32  8
31  33  8
32  33  8
5  25  8
5  26  8
6  25  8
6  7  8
7  26  8

$$$$
