57383406
  -OEChem-09292321582D

 50 52  0     1  0  0  0  0  0999 V2000
   10.9077   -1.0039    0.0000 S   0  0  3  0  0  0  0  0  0  0  0  0
   10.9077   -2.0039    0.0000 O   0  0  0  0  0  0  0  0  0  0  0  0
   11.8416    2.0877    0.0000 O   0  0  0  0  0  0  0  0  0  0  0  0
    6.8516    1.2989    0.0000 O   0  0  0  0  0  0  0  0  0  0  0  0
   10.4077    1.1868    0.0000 N   0  0  0  0  0  0  0  0  0  0  0  0
    2.9544   -1.1120    0.0000 N   0  0  0  0  0  0  0  0  0  0  0  0
    6.3346   -0.3542    0.0000 N   0  0  0  0  0  0  0  0  0  0  0  0
    9.7842    0.4049    0.0000 C   0  0  0  0  0  0  0  0  0  0  0  0
   10.0068   -0.5700    0.0000 C   0  0  0  0  0  0  0  0  0  0  0  0
    4.6445   -0.7331    0.0000 C   0  0  0  0  0  0  0  0  0  0  0  0
    3.6901   -0.4346    0.0000 C   0  0  0  0  0  0  0  0  0  0  0  0
    5.3802   -0.0557    0.0000 C   0  0  0  0  0  0  0  0  0  0  0  0
    8.0247    0.0247    0.0000 C   0  0  0  0  0  0  0  0  0  0  0  0
   11.8087   -0.5700    0.0000 C   0  0  0  0  0  0  0  0  0  0  0  0
    8.7937    0.7273    0.0000 C   0  0  0  0  0  0  0  0  0  0  0  0
   12.0312    0.4049    0.0000 C   0  0  0  0  0  0  0  0  0  0  0  0
   11.4077    1.1868    0.0000 C   0  0  0  0  0  0  0  0  0  0  0  0
    9.2542   -1.2901    0.0000 C   0  0  0  0  0  0  0  0  0  0  0  0
    8.2565   -0.9908    0.0000 C   0  0  0  0  0  0  0  0  0  0  0  0
    7.0703    0.3232    0.0000 C   0  0  0  0  0  0  0  0  0  0  0  0
    9.9739    2.0878    0.0000 C   0  0  0  0  0  0  0  0  0  0  0  0
   12.5612   -1.2902    0.0000 C   0  0  0  0  0  0  0  0  0  0  0  0
   13.0217    0.7273    0.0000 C   0  0  0  0  0  0  0  0  0  0  0  0
    2.0000   -0.8135    0.0000 C   0  0  0  0  0  0  0  0  0  0  0  0
    3.1732   -2.0878    0.0000 C   0  0  0  0  0  0  0  0  0  0  0  0
   13.5589   -0.9908    0.0000 C   0  0  0  0  0  0  0  0  0  0  0  0
   13.7907    0.0247    0.0000 C   0  0  0  0  0  0  0  0  0  0  0  0
    4.3595   -1.2837    0.0000 H   0  0  0  0  0  0  0  0  0  0  0  0
    5.1373   -1.1093    0.0000 H   0  0  0  0  0  0  0  0  0  0  0  0
    3.9751    0.1160    0.0000 H   0  0  0  0  0  0  0  0  0  0  0  0
    3.1973   -0.0584    0.0000 H   0  0  0  0  0  0  0  0  0  0  0  0
    5.6652    0.4949    0.0000 H   0  0  0  0  0  0  0  0  0  0  0  0
    4.8874    0.3205    0.0000 H   0  0  0  0  0  0  0  0  0  0  0  0
    8.6628    1.3333    0.0000 H   0  0  0  0  0  0  0  0  0  0  0  0
    9.3991   -1.8930    0.0000 H   0  0  0  0  0  0  0  0  0  0  0  0
    7.8036   -1.4143    0.0000 H   0  0  0  0  0  0  0  0  0  0  0  0
    6.4703   -0.9592    0.0000 H   0  0  0  0  0  0  0  0  0  0  0  0
   10.5325    2.3568    0.0000 H   0  0  0  0  0  0  0  0  0  0  0  0
    9.7049    2.6464    0.0000 H   0  0  0  0  0  0  0  0  0  0  0  0
    9.4153    1.8187    0.0000 H   0  0  0  0  0  0  0  0  0  0  0  0
   12.4163   -1.8930    0.0000 H   0  0  0  0  0  0  0  0  0  0  0  0
   13.1527    1.3333    0.0000 H   0  0  0  0  0  0  0  0  0  0  0  0
    2.1850   -0.2218    0.0000 H   0  0  0  0  0  0  0  0  0  0  0  0
    1.4083   -0.6285    0.0000 H   0  0  0  0  0  0  0  0  0  0  0  0
    1.8150   -1.4053    0.0000 H   0  0  0  0  0  0  0  0  0  0  0  0
    2.5682   -2.2234    0.0000 H   0  0  0  0  0  0  0  0  0  0  0  0
    3.3088   -2.6927    0.0000 H   0  0  0  0  0  0  0  0  0  0  0  0
    3.7782   -1.9521    0.0000 H   0  0  0  0  0  0  0  0  0  0  0  0
   14.0118   -1.4143    0.0000 H   0  0  0  0  0  0  0  0  0  0  0  0
   14.3825    0.2097    0.0000 H   0  0  0  0  0  0  0  0  0  0  0  0
  1  2  2  0  0  0  0
  1  9  1  0  0  0  0
  1 14  1  0  0  0  0
  3 17  2  0  0  0  0
  4 20  2  0  0  0  0
  5  8  1  0  0  0  0
  5 17  1  0  0  0  0
  5 21  1  0  0  0  0
  6 11  1  0  0  0  0
  6 24  1  0  0  0  0
  6 25  1  0  0  0  0
  7 12  1  0  0  0  0
  7 20  1  0  0  0  0
  7 37  1  0  0  0  0
  8  9  2  0  0  0  0
  8 15  1  0  0  0  0
  9 18  1  0  0  0  0
 10 11  1  0  0  0  0
 10 12  1  0  0  0  0
 10 28  1  0  0  0  0
 10 29  1  0  0  0  0
 11 30  1  0  0  0  0
 11 31  1  0  0  0  0
 12 32  1  0  0  0  0
 12 33  1  0  0  0  0
 13 15  2  0  0  0  0
 13 19  1  0  0  0  0
 13 20  1  0  0  0  0
 14 16  1  0  0  0  0
 14 22  2  0  0  0  0
 15 34  1  0  0  0  0
 16 17  1  0  0  0  0
 16 23  2  0  0  0  0
 18 19  2  0  0  0  0
 18 35  1  0  0  0  0
 19 36  1  0  0  0  0
 21 38  1  0  0  0  0
 21 39  1  0  0  0  0
 21 40  1  0  0  0  0
 22 26  1  0  0  0  0
 22 41  1  0  0  0  0
 23 27  1  0  0  0  0
 23 42  1  0  0  0  0
 24 43  1  0  0  0  0
 24 44  1  0  0  0  0
 24 45  1  0  0  0  0
 25 46  1  0  0  0  0
 25 47  1  0  0  0  0
 25 48  1  0  0  0  0
 26 27  2  0  0  0  0
 26 49  1  0  0  0  0
 27 50  1  0  0  0  0
M  END
> <PUBCHEM_COMPOUND_CID>
57383406

> <PUBCHEM_COMPOUND_CANONICALIZED>
1

> <PUBCHEM_CACTVS_COMPLEXITY>
583

> <PUBCHEM_CACTVS_HBOND_ACCEPTOR>
5

> <PUBCHEM_CACTVS_HBOND_DONOR>
1

> <PUBCHEM_CACTVS_ROTATABLE_BOND>
5

> <PUBCHEM_CACTVS_SUBSKEYS>
AAADceB7MABAAAAAAAAAAAAAAAAAAAAAAAAwYAAABYAAAAABQAAAHgQQAAAADAjB2AQywYPAAAqIAiVSUEDCAAAlChAIiJ0IZMgIIDLg1ZGEIQhglgDoyYcciACOEAAAQAAEAQAgAACAAAgCAAAAAAAAAA==

> <PUBCHEM_IUPAC_OPENEYE_NAME>
N-[3-(dimethylamino)propyl]-5-methyl-6,11-dioxo-benzo[b][1,4]benzothiazepine-3-carboxamide

> <PUBCHEM_IUPAC_CAS_NAME>
N-[3-(dimethylamino)propyl]-5-methyl-6,11-dioxo-3-benzo[b][1,4]benzothiazepinecarboxamide

> <PUBCHEM_IUPAC_NAME_MARKUP>
<I>N</I>-[3-(dimethylamino)propyl]-5-methyl-6,11-dioxobenzo[b][1,4]benzothiazepine-3-carboxamide

> <PUBCHEM_IUPAC_NAME>
N-[3-(dimethylamino)propyl]-5-methyl-6,11-dioxobenzo[b][1,4]benzothiazepine-3-carboxamide

> <PUBCHEM_IUPAC_SYSTEMATIC_NAME>
N-[3-(dimethylamino)propyl]-5-methyl-6,11-bis(oxidanylidene)benzo[b][1,4]benzothiazepine-3-carboxamide

> <PUBCHEM_IUPAC_TRADITIONAL_NAME>
N-[3-(dimethylamino)propyl]-6,11-diketo-5-methyl-benzo[b][1,4]benzothiazepine-3-carboxamide

> <PUBCHEM_IUPAC_INCHI>
InChI=1S/C20H23N3O3S/c1-22(2)12-6-11-21-19(24)14-9-10-18-16(13-14)23(3)20(25)15-7-4-5-8-17(15)27(18)26/h4-5,7-10,13H,6,11-12H2,1-3H3,(H,21,24)

> <PUBCHEM_IUPAC_INCHIKEY>
GAUDHVYNVFYMSQ-UHFFFAOYSA-N

> <PUBCHEM_XLOGP3_AA>
1.5

> <PUBCHEM_EXACT_MASS>
385.14601278

> <PUBCHEM_MOLECULAR_FORMULA>
C20H23N3O3S

> <PUBCHEM_MOLECULAR_WEIGHT>
385.5

> <PUBCHEM_OPENEYE_CAN_SMILES>
CN1C2=C(C=CC(=C2)C(=O)NCCCN(C)C)S(=O)C3=CC=CC=C3C1=O

> <PUBCHEM_OPENEYE_ISO_SMILES>
CN1C2=C(C=CC(=C2)C(=O)NCCCN(C)C)S(=O)C3=CC=CC=C3C1=O

> <PUBCHEM_CACTVS_TPSA>
88.9

> <PUBCHEM_MONOISOTOPIC_WEIGHT>
385.14601278

> <PUBCHEM_TOTAL_CHARGE>
0

> <PUBCHEM_HEAVY_ATOM_COUNT>
27

> <PUBCHEM_ATOM_DEF_STEREO_COUNT>
0

> <PUBCHEM_ATOM_UDEF_STEREO_COUNT>
1

> <PUBCHEM_BOND_DEF_STEREO_COUNT>
0

> <PUBCHEM_BOND_UDEF_STEREO_COUNT>
0

> <PUBCHEM_ISOTOPIC_ATOM_COUNT>
0

> <PUBCHEM_COMPONENT_COUNT>
1

> <PUBCHEM_CACTVS_TAUTO_COUNT>
-1

> <PUBCHEM_COORDINATE_TYPE>
1
5
255

> <PUBCHEM_BONDANNOTATIONS>
1  14  3
13  15  8
13  19  8
14  16  8
14  22  8
16  23  8
18  19  8
22  26  8
23  27  8
26  27  8
8  15  8
8  9  8
9  18  8

$$$$
