10061323
  -OEChem-09292322132D

 41 44  0     1  0  0  0  0  0999 V2000
    6.3903   -1.2831    0.0000 N   0  0  3  0  0  0  0  0  0  0  0  0
    5.5321   -0.7862    0.0000 C   0  0  1  0  0  0  0  0  0  0  0  0
    5.5321    0.2138    0.0000 C   0  0  0  0  0  0  0  0  0  0  0  0
    4.6660   -1.2862    0.0000 C   0  0  0  0  0  0  0  0  0  0  0  0
    6.4421    0.7207    0.0000 C   0  0  0  0  0  0  0  0  0  0  0  0
    4.6660    0.7138    0.0000 C   0  0  0  0  0  0  0  0  0  0  0  0
    7.2558   -0.7989    0.0000 C   0  0  0  0  0  0  0  0  0  0  0  0
    7.2814    0.1924    0.0000 C   0  0  0  0  0  0  0  0  0  0  0  0
    3.8000   -0.7862    0.0000 C   0  0  0  0  0  0  0  0  0  0  0  0
    3.8000    0.2138    0.0000 C   0  0  0  0  0  0  0  0  0  0  0  0
    2.9061    0.7485    0.0000 C   0  0  0  0  0  0  0  0  0  0  0  0
    6.3829   -2.2831    0.0000 C   0  0  0  0  0  0  0  0  0  0  0  0
    6.4501    1.7623    0.0000 C   0  0  0  0  0  0  0  0  0  0  0  0
    4.6500    1.7553    0.0000 C   0  0  0  0  0  0  0  0  0  0  0  0
    2.9061   -1.3208    0.0000 C   0  0  0  0  0  0  0  0  0  0  0  0
    5.5480    2.2831    0.0000 C   0  0  0  0  0  0  0  0  0  0  0  0
    2.9176    1.7484    0.0000 C   0  0  0  0  0  0  0  0  0  0  0  0
    2.0000    0.2346    0.0000 C   0  0  0  0  0  0  0  0  0  0  0  0
    2.0000   -0.8070    0.0000 C   0  0  0  0  0  0  0  0  0  0  0  0
    2.0574    2.2584    0.0000 C   0  0  0  0  0  0  0  0  0  0  0  0
    5.5315   -1.6362    0.0000 H   0  0  0  0  0  0  0  0  0  0  0  0
    4.2675   -1.7611    0.0000 H   0  0  0  0  0  0  0  0  0  0  0  0
    5.0646   -1.7611    0.0000 H   0  0  0  0  0  0  0  0  0  0  0  0
    7.4575   -1.3852    0.0000 H   0  0  0  0  0  0  0  0  0  0  0  0
    7.8685   -0.7046    0.0000 H   0  0  0  0  0  0  0  0  0  0  0  0
    7.8885    0.0665    0.0000 H   0  0  0  0  0  0  0  0  0  0  0  0
    7.5131    0.7675    0.0000 H   0  0  0  0  0  0  0  0  0  0  0  0
    5.7629   -2.2785    0.0000 H   0  0  0  0  0  0  0  0  0  0  0  0
    6.3783   -2.9031    0.0000 H   0  0  0  0  0  0  0  0  0  0  0  0
    7.0029   -2.2877    0.0000 H   0  0  0  0  0  0  0  0  0  0  0  0
    6.9882    2.0702    0.0000 H   0  0  0  0  0  0  0  0  0  0  0  0
    4.1095    2.0591    0.0000 H   0  0  0  0  0  0  0  0  0  0  0  0
    2.9132   -1.9408    0.0000 H   0  0  0  0  0  0  0  0  0  0  0  0
    5.5456    2.9031    0.0000 H   0  0  0  0  0  0  0  0  0  0  0  0
    3.5269    1.6337    0.0000 H   0  0  0  0  0  0  0  0  0  0  0  0
    3.1364    2.3285    0.0000 H   0  0  0  0  0  0  0  0  0  0  0  0
    1.4643    0.5467    0.0000 H   0  0  0  0  0  0  0  0  0  0  0  0
    1.4643   -1.1191    0.0000 H   0  0  0  0  0  0  0  0  0  0  0  0
    2.3736    2.7917    0.0000 H   0  0  0  0  0  0  0  0  0  0  0  0
    1.5241    2.5746    0.0000 H   0  0  0  0  0  0  0  0  0  0  0  0
    1.7413    1.7251    0.0000 H   0  0  0  0  0  0  0  0  0  0  0  0
  1  2  1  0  0  0  0
  1  7  1  0  0  0  0
  1 12  1  0  0  0  0
  2  3  1  0  0  0  0
  2  4  1  0  0  0  0
  2 21  1  1  0  0  0
  3  5  2  0  0  0  0
  3  6  1  0  0  0  0
  4  9  1  0  0  0  0
  4 22  1  0  0  0  0
  4 23  1  0  0  0  0
  5  8  1  0  0  0  0
  5 13  1  0  0  0  0
  6 10  1  0  0  0  0
  6 14  2  0  0  0  0
  7  8  1  0  0  0  0
  7 24  1  0  0  0  0
  7 25  1  0  0  0  0
  8 26  1  0  0  0  0
  8 27  1  0  0  0  0
  9 10  2  0  0  0  0
  9 15  1  0  0  0  0
 10 11  1  0  0  0  0
 11 17  1  0  0  0  0
 11 18  2  0  0  0  0
 12 28  1  0  0  0  0
 12 29  1  0  0  0  0
 12 30  1  0  0  0  0
 13 16  2  0  0  0  0
 13 31  1  0  0  0  0
 14 16  1  0  0  0  0
 14 32  1  0  0  0  0
 15 19  2  0  0  0  0
 15 33  1  0  0  0  0
 16 34  1  0  0  0  0
 17 20  1  0  0  0  0
 17 35  1  0  0  0  0
 17 36  1  0  0  0  0
 18 19  1  0  0  0  0
 18 37  1  0  0  0  0
 19 38  1  0  0  0  0
 20 39  1  0  0  0  0
 20 40  1  0  0  0  0
 20 41  1  0  0  0  0
M  END
> <PUBCHEM_COMPOUND_CID>
10061323

> <PUBCHEM_COMPOUND_CANONICALIZED>
1

> <PUBCHEM_CACTVS_COMPLEXITY>
352

> <PUBCHEM_CACTVS_HBOND_ACCEPTOR>
1

> <PUBCHEM_CACTVS_HBOND_DONOR>
0

> <PUBCHEM_CACTVS_ROTATABLE_BOND>
1

> <PUBCHEM_CACTVS_SUBSKEYS>
AAADceB6AAAAAAAAAAAAAAAAAAAAAAAAAAA8YMEAAAAAAADxQAAAHAAAAAAADCjBGAQyAIMAAACAAiBCAACCAAAgAAAIiAAIBIgIICKAkRGEIAhggACIiAcQgMAOgAACAAAQAACQAASAACQAAAAAAAAAAA==

> <PUBCHEM_IUPAC_OPENEYE_NAME>
(6aR)-11-ethyl-6-methyl-5,6,6a,7-tetrahydro-4H-dibenzo[de,g]quinoline

> <PUBCHEM_IUPAC_CAS_NAME>
(6aR)-11-ethyl-6-methyl-5,6,6a,7-tetrahydro-4H-dibenzo[de,g]quinoline

> <PUBCHEM_IUPAC_NAME_MARKUP>
(6<I>a</I><I>R</I>)-11-ethyl-6-methyl-5,6,6<I>a</I>,7-tetrahydro-4<I>H</I>-dibenzo[de,g]quinoline

> <PUBCHEM_IUPAC_NAME>
(6aR)-11-ethyl-6-methyl-5,6,6a,7-tetrahydro-4H-dibenzo[de,g]quinoline

> <PUBCHEM_IUPAC_SYSTEMATIC_NAME>
(6aR)-11-ethyl-6-methyl-5,6,6a,7-tetrahydro-4H-dibenzo[de,g]quinoline

> <PUBCHEM_IUPAC_TRADITIONAL_NAME>
(6aR)-11-ethyl-6-methyl-5,6,6a,7-tetrahydro-4H-dibenzo[de,g]quinoline

> <PUBCHEM_IUPAC_INCHI>
InChI=1S/C19H21N/c1-3-13-6-4-8-15-12-17-19-14(10-11-20(17)2)7-5-9-16(19)18(13)15/h4-9,17H,3,10-12H2,1-2H3/t17-/m1/s1

> <PUBCHEM_IUPAC_INCHIKEY>
KCQGEEQDLXFPPZ-QGZVFWFLSA-N

> <PUBCHEM_XLOGP3>
3.8

> <PUBCHEM_EXACT_MASS>
263.167399674

> <PUBCHEM_MOLECULAR_FORMULA>
C19H21N

> <PUBCHEM_MOLECULAR_WEIGHT>
263.4

> <PUBCHEM_OPENEYE_CAN_SMILES>
CCC1=CC=CC2=C1C3=CC=CC4=C3C(C2)N(CC4)C

> <PUBCHEM_OPENEYE_ISO_SMILES>
CCC1=CC=CC2=C1C3=CC=CC4=C3[C@@H](C2)N(CC4)C

> <PUBCHEM_CACTVS_TPSA>
3.2

> <PUBCHEM_MONOISOTOPIC_WEIGHT>
263.167399674

> <PUBCHEM_TOTAL_CHARGE>
0

> <PUBCHEM_HEAVY_ATOM_COUNT>
20

> <PUBCHEM_ATOM_DEF_STEREO_COUNT>
1

> <PUBCHEM_ATOM_UDEF_STEREO_COUNT>
0

> <PUBCHEM_BOND_DEF_STEREO_COUNT>
0

> <PUBCHEM_BOND_UDEF_STEREO_COUNT>
0

> <PUBCHEM_ISOTOPIC_ATOM_COUNT>
0

> <PUBCHEM_COMPONENT_COUNT>
1

> <PUBCHEM_CACTVS_TAUTO_COUNT>
-1

> <PUBCHEM_COORDINATE_TYPE>
1
5
255

> <PUBCHEM_BONDANNOTATIONS>
10  11  8
11  18  8
13  16  8
14  16  8
15  19  8
18  19  8
2  21  5
3  5  8
3  6  8
5  13  8
6  14  8
9  10  8
9  15  8

$$$$
