164622835
  -OEChem-09292322432D

 62 64  0     1  0  0  0  0  0999 V2000
    6.0010   -3.2249    0.0000 Cl  0  0  0  0  0  0  0  0  0  0  0  0
    8.5782    2.0069    0.0000 O   0  0  0  0  0  0  0  0  0  0  0  0
    3.4030    0.2751    0.0000 O   0  0  0  0  0  0  0  0  0  0  0  0
    6.0010   -1.2249    0.0000 O   0  0  0  0  0  0  0  0  0  0  0  0
    2.5369   -1.2249    0.0000 O   0  0  0  0  0  0  0  0  0  0  0  0
    6.1056    2.7696    0.0000 N   0  0  0  0  0  0  0  0  0  0  0  0
    5.1350    0.2751    0.0000 N   0  0  0  0  0  0  0  0  0  0  0  0
    6.0010    1.7751    0.0000 C   0  0  1  0  0  0  0  0  0  0  0  0
    6.9146    1.3683    0.0000 C   0  0  0  0  0  0  0  0  0  0  0  0
    7.5837    2.1115    0.0000 C   0  0  2  0  0  0  0  0  0  0  0  0
    7.0837    2.9775    0.0000 C   0  0  0  0  0  0  0  0  0  0  0  0
    5.1350    1.2751    0.0000 C   0  0  0  0  0  0  0  0  0  0  0  0
    9.1660    2.8160    0.0000 C   0  0  0  0  0  0  0  0  0  0  0  0
   10.1605    2.7114    0.0000 C   0  0  0  0  0  0  0  0  0  0  0  0
    4.2690   -0.2249    0.0000 C   0  0  0  0  0  0  0  0  0  0  0  0
   10.7483    3.5204    0.0000 C   0  0  0  0  0  0  0  0  0  0  0  0
    4.2690   -1.2249    0.0000 C   0  0  0  0  0  0  0  0  0  0  0  0
   11.7428    3.4159    0.0000 C   0  0  0  0  0  0  0  0  0  0  0  0
    3.4030   -1.7249    0.0000 C   0  0  0  0  0  0  0  0  0  0  0  0
    5.1350   -1.7249    0.0000 C   0  0  0  0  0  0  0  0  0  0  0  0
    3.4030   -2.7249    0.0000 C   0  0  0  0  0  0  0  0  0  0  0  0
   12.3306    4.2249    0.0000 C   0  0  0  0  0  0  0  0  0  0  0  0
   12.1496    2.5024    0.0000 C   0  0  0  0  0  0  0  0  0  0  0  0
    5.1350   -2.7249    0.0000 C   0  0  0  0  0  0  0  0  0  0  0  0
    4.2690   -3.2249    0.0000 C   0  0  0  0  0  0  0  0  0  0  0  0
    2.5369   -3.2249    0.0000 C   0  0  0  0  0  0  0  0  0  0  0  0
   13.3252    4.1204    0.0000 C   0  0  0  0  0  0  0  0  0  0  0  0
   13.1441    2.3978    0.0000 C   0  0  0  0  0  0  0  0  0  0  0  0
    2.5369   -4.2249    0.0000 C   0  0  0  0  0  0  0  0  0  0  0  0
   13.7319    3.2069    0.0000 C   0  0  0  0  0  0  0  0  0  0  0  0
    6.8671   -1.7249    0.0000 C   0  0  0  0  0  0  0  0  0  0  0  0
    5.4811    2.1127    0.0000 H   0  0  0  0  0  0  0  0  0  0  0  0
    6.6046    0.8314    0.0000 H   0  0  0  0  0  0  0  0  0  0  0  0
    7.4162    1.0039    0.0000 H   0  0  0  0  0  0  0  0  0  0  0  0
    7.8059    1.5326    0.0000 H   0  0  0  0  0  0  0  0  0  0  0  0
    7.6501    3.2297    0.0000 H   0  0  0  0  0  0  0  0  0  0  0  0
    6.8921    3.5672    0.0000 H   0  0  0  0  0  0  0  0  0  0  0  0
    5.6448    3.1844    0.0000 H   0  0  0  0  0  0  0  0  0  0  0  0
    4.9230    1.8577    0.0000 H   0  0  0  0  0  0  0  0  0  0  0  0
    4.5244    1.1674    0.0000 H   0  0  0  0  0  0  0  0  0  0  0  0
    9.3369    3.4119    0.0000 H   0  0  0  0  0  0  0  0  0  0  0  0
    8.6088    3.0878    0.0000 H   0  0  0  0  0  0  0  0  0  0  0  0
    5.6720   -0.0349    0.0000 H   0  0  0  0  0  0  0  0  0  0  0  0
    9.9896    2.1154    0.0000 H   0  0  0  0  0  0  0  0  0  0  0  0
   10.7178    2.4396    0.0000 H   0  0  0  0  0  0  0  0  0  0  0  0
   10.9192    4.1164    0.0000 H   0  0  0  0  0  0  0  0  0  0  0  0
   10.1911    3.7922    0.0000 H   0  0  0  0  0  0  0  0  0  0  0  0
   12.0785    4.7913    0.0000 H   0  0  0  0  0  0  0  0  0  0  0  0
   11.7852    2.0008    0.0000 H   0  0  0  0  0  0  0  0  0  0  0  0
    4.2690   -3.8449    0.0000 H   0  0  0  0  0  0  0  0  0  0  0  0
    2.3249   -2.6423    0.0000 H   0  0  0  0  0  0  0  0  0  0  0  0
    1.9264   -3.3326    0.0000 H   0  0  0  0  0  0  0  0  0  0  0  0
   13.6896    4.6220    0.0000 H   0  0  0  0  0  0  0  0  0  0  0  0
   13.3963    1.8314    0.0000 H   0  0  0  0  0  0  0  0  0  0  0  0
    2.0000   -1.5349    0.0000 H   0  0  0  0  0  0  0  0  0  0  0  0
    1.9169   -4.2249    0.0000 H   0  0  0  0  0  0  0  0  0  0  0  0
    2.5369   -4.8449    0.0000 H   0  0  0  0  0  0  0  0  0  0  0  0
    3.1569   -4.2249    0.0000 H   0  0  0  0  0  0  0  0  0  0  0  0
   14.3485    3.1421    0.0000 H   0  0  0  0  0  0  0  0  0  0  0  0
    6.5571   -2.2619    0.0000 H   0  0  0  0  0  0  0  0  0  0  0  0
    7.4040   -2.0349    0.0000 H   0  0  0  0  0  0  0  0  0  0  0  0
    7.1771   -1.1880    0.0000 H   0  0  0  0  0  0  0  0  0  0  0  0
  1 24  1  0  0  0  0
 10  2  1  6  0  0  0
  2 13  1  0  0  0  0
  3 15  2  0  0  0  0
  4 20  1  0  0  0  0
  4 31  1  0  0  0  0
  5 19  1  0  0  0  0
  5 55  1  0  0  0  0
  6  8  1  0  0  0  0
  6 11  1  0  0  0  0
  6 38  1  0  0  0  0
  7 12  1  0  0  0  0
  7 15  1  0  0  0  0
  7 43  1  0  0  0  0
  8  9  1  0  0  0  0
  8 12  1  1  0  0  0
  8 32  1  0  0  0  0
  9 10  1  0  0  0  0
  9 33  1  0  0  0  0
  9 34  1  0  0  0  0
 10 11  1  0  0  0  0
 10 35  1  0  0  0  0
 11 36  1  0  0  0  0
 11 37  1  0  0  0  0
 12 39  1  0  0  0  0
 12 40  1  0  0  0  0
 13 14  1  0  0  0  0
 13 41  1  0  0  0  0
 13 42  1  0  0  0  0
 14 16  1  0  0  0  0
 14 44  1  0  0  0  0
 14 45  1  0  0  0  0
 15 17  1  0  0  0  0
 16 18  1  0  0  0  0
 16 46  1  0  0  0  0
 16 47  1  0  0  0  0
 17 19  2  0  0  0  0
 17 20  1  0  0  0  0
 18 22  2  0  0  0  0
 18 23  1  0  0  0  0
 19 21  1  0  0  0  0
 20 24  2  0  0  0  0
 21 25  2  0  0  0  0
 21 26  1  0  0  0  0
 22 27  1  0  0  0  0
 22 48  1  0  0  0  0
 23 28  2  0  0  0  0
 23 49  1  0  0  0  0
 24 25  1  0  0  0  0
 25 50  1  0  0  0  0
 26 29  1  0  0  0  0
 26 51  1  0  0  0  0
 26 52  1  0  0  0  0
 27 30  2  0  0  0  0
 27 53  1  0  0  0  0
 28 30  1  0  0  0  0
 28 54  1  0  0  0  0
 29 56  1  0  0  0  0
 29 57  1  0  0  0  0
 29 58  1  0  0  0  0
 30 59  1  0  0  0  0
 31 60  1  0  0  0  0
 31 61  1  0  0  0  0
 31 62  1  0  0  0  0
M  END
> <PUBCHEM_COMPOUND_CID>
164622835

> <PUBCHEM_COMPOUND_CANONICALIZED>
1

> <PUBCHEM_CACTVS_COMPLEXITY>
546

> <PUBCHEM_CACTVS_HBOND_ACCEPTOR>
5

> <PUBCHEM_CACTVS_HBOND_DONOR>
3

> <PUBCHEM_CACTVS_ROTATABLE_BOND>
10

> <PUBCHEM_CACTVS_SUBSKEYS>
AAADceB7OAAEAAAAAAAAAAAAAAAAAWAAAAAwYAAAAAAAAAABQAAAHgIQCAAADD7hmCYyBoLABgCIAiFSEACCCAAkJUAIiIEMD8gOZzeHtxuXcWhn9hWYuQe46OyOICACKAAICABAQARQABAQAAAAAAAAAA==

> <PUBCHEM_IUPAC_OPENEYE_NAME>
5-chloro-3-ethyl-2-hydroxy-6-methoxy-N-[[(2S,4R)-4-(3-phenylpropoxy)pyrrolidin-2-yl]methyl]benzamide

> <PUBCHEM_IUPAC_CAS_NAME>
5-chloro-3-ethyl-2-hydroxy-6-methoxy-N-[[(2S,4R)-4-(3-phenylpropoxy)-2-pyrrolidinyl]methyl]benzamide

> <PUBCHEM_IUPAC_NAME_MARKUP>
5-chloro-3-ethyl-2-hydroxy-6-methoxy-<I>N</I>-[[(2<I>S</I>,4<I>R</I>)-4-(3-phenylpropoxy)pyrrolidin-2-yl]methyl]benzamide

> <PUBCHEM_IUPAC_NAME>
5-chloro-3-ethyl-2-hydroxy-6-methoxy-N-[[(2S,4R)-4-(3-phenylpropoxy)pyrrolidin-2-yl]methyl]benzamide

> <PUBCHEM_IUPAC_SYSTEMATIC_NAME>
3-chloranyl-5-ethyl-2-methoxy-6-oxidanyl-N-[[(2S,4R)-4-(3-phenylpropoxy)pyrrolidin-2-yl]methyl]benzamide

> <PUBCHEM_IUPAC_TRADITIONAL_NAME>
5-chloro-3-ethyl-2-hydroxy-6-methoxy-N-[[(2S,4R)-4-(3-phenylpropoxy)pyrrolidin-2-yl]methyl]benzamide

> <PUBCHEM_IUPAC_INCHI>
InChI=1S/C24H31ClN2O4/c1-3-17-12-20(25)23(30-2)21(22(17)28)24(29)27-14-18-13-19(15-26-18)31-11-7-10-16-8-5-4-6-9-16/h4-6,8-9,12,18-19,26,28H,3,7,10-11,13-15H2,1-2H3,(H,27,29)/t18-,19+/m0/s1

> <PUBCHEM_IUPAC_INCHIKEY>
DSVHLIGWQYXIBW-RBUKOAKNSA-N

> <PUBCHEM_XLOGP3_AA>
4.8

> <PUBCHEM_EXACT_MASS>
446.1972352

> <PUBCHEM_MOLECULAR_FORMULA>
C24H31ClN2O4

> <PUBCHEM_MOLECULAR_WEIGHT>
447.0

> <PUBCHEM_OPENEYE_CAN_SMILES>
CCC1=CC(=C(C(=C1O)C(=O)NCC2CC(CN2)OCCCC3=CC=CC=C3)OC)Cl

> <PUBCHEM_OPENEYE_ISO_SMILES>
CCC1=CC(=C(C(=C1O)C(=O)NC[C@@H]2C[C@H](CN2)OCCCC3=CC=CC=C3)OC)Cl

> <PUBCHEM_CACTVS_TPSA>
79.8

> <PUBCHEM_MONOISOTOPIC_WEIGHT>
446.1972352

> <PUBCHEM_TOTAL_CHARGE>
0

> <PUBCHEM_HEAVY_ATOM_COUNT>
31

> <PUBCHEM_ATOM_DEF_STEREO_COUNT>
2

> <PUBCHEM_ATOM_UDEF_STEREO_COUNT>
0

> <PUBCHEM_BOND_DEF_STEREO_COUNT>
0

> <PUBCHEM_BOND_UDEF_STEREO_COUNT>
0

> <PUBCHEM_ISOTOPIC_ATOM_COUNT>
0

> <PUBCHEM_COMPONENT_COUNT>
1

> <PUBCHEM_CACTVS_TAUTO_COUNT>
-1

> <PUBCHEM_COORDINATE_TYPE>
1
5
255

> <PUBCHEM_BONDANNOTATIONS>
17  19  8
17  20  8
18  22  8
18  23  8
19  21  8
10  2  6
20  24  8
21  25  8
22  27  8
23  28  8
24  25  8
27  30  8
28  30  8
8  12  5

$$$$
