145982506
  -OEChem-09292322392D

 66 71  0     1  0  0  0  0  0999 V2000
    3.0000    0.1766    0.0000 S   0  0  0  0  0  0  0  0  0  0  0  0
    2.0000    0.1766    0.0000 O   0  0  0  0  0  0  0  0  0  0  0  0
    4.0000    0.1766    0.0000 O   0  0  0  0  0  0  0  0  0  0  0  0
    3.0000    1.1766    0.0000 N   0  0  3  0  0  0  0  0  0  0  0  0
    6.4543    1.8155    0.0000 N   0  0  0  0  0  0  0  0  0  0  0  0
    8.3564    1.1975    0.0000 N   0  0  0  0  0  0  0  0  0  0  0  0
   11.5839    2.0543    0.0000 N   0  0  0  0  0  0  0  0  0  0  0  0
    4.7600   -2.8580    0.0000 N   0  0  0  0  0  0  0  0  0  0  0  0
    3.8090    1.7644    0.0000 C   0  0  1  0  0  0  0  0  0  0  0  0
    3.5000    2.7155    0.0000 C   0  0  0  0  0  0  0  0  0  0  0  0
    4.7601    1.4554    0.0000 C   0  0  0  0  0  0  0  0  0  0  0  0
    2.5000    2.7155    0.0000 C   0  0  0  0  0  0  0  0  0  0  0  0
    2.1910    1.7644    0.0000 C   0  0  0  0  0  0  0  0  0  0  0  0
    5.5032    2.1245    0.0000 C   0  0  0  0  0  0  0  0  0  0  0  0
    6.6622    0.8374    0.0000 C   0  0  0  0  0  0  0  0  0  0  0  0
    7.1974    2.4846    0.0000 C   0  0  0  0  0  0  0  0  0  0  0  0
    7.6132    0.5283    0.0000 C   0  0  0  0  0  0  0  0  0  0  0  0
    8.1485    2.1756    0.0000 C   0  0  0  0  0  0  0  0  0  0  0  0
    3.0000   -0.8234    0.0000 C   0  0  0  0  0  0  0  0  0  0  0  0
    9.3074    0.8885    0.0000 C   0  0  0  0  0  0  0  0  0  0  0  0
    3.8660   -1.3234    0.0000 C   0  0  0  0  0  0  0  0  0  0  0  0
    2.1340   -1.3234    0.0000 C   0  0  0  0  0  0  0  0  0  0  0  0
   10.0506    1.5576    0.0000 C   0  0  0  0  0  0  0  0  0  0  0  0
    9.5154   -0.0897    0.0000 C   0  0  0  0  0  0  0  0  0  0  0  0
    3.8660   -2.3234    0.0000 C   0  0  0  0  0  0  0  0  0  0  0  0
   11.0016    1.2486    0.0000 C   0  0  0  0  0  0  0  0  0  0  0  0
    2.1340   -2.3234    0.0000 C   0  0  0  0  0  0  0  0  0  0  0  0
    4.7600   -0.7887    0.0000 C   0  0  0  0  0  0  0  0  0  0  0  0
   10.0532    2.5517    0.0000 C   0  0  0  0  0  0  0  0  0  0  0  0
    3.0000   -2.8234    0.0000 C   0  0  0  0  0  0  0  0  0  0  0  0
   10.4664   -0.3987    0.0000 C   0  0  0  0  0  0  0  0  0  0  0  0
   11.2096    0.2704    0.0000 C   0  0  0  0  0  0  0  0  0  0  0  0
   10.9989    2.8580    0.0000 C   0  0  0  0  0  0  0  0  0  0  0  0
    5.6660   -1.3026    0.0000 C   0  0  0  0  0  0  0  0  0  0  0  0
    5.6660   -2.3442    0.0000 C   0  0  0  0  0  0  0  0  0  0  0  0
    3.9060    1.1520    0.0000 H   0  0  0  0  0  0  0  0  0  0  0  0
    4.1064    2.8444    0.0000 H   0  0  0  0  0  0  0  0  0  0  0  0
    3.4352    3.3321    0.0000 H   0  0  0  0  0  0  0  0  0  0  0  0
    4.4690    0.9080    0.0000 H   0  0  0  0  0  0  0  0  0  0  0  0
    5.2486    1.0737    0.0000 H   0  0  0  0  0  0  0  0  0  0  0  0
    2.5648    3.3321    0.0000 H   0  0  0  0  0  0  0  0  0  0  0  0
    1.8936    2.8444    0.0000 H   0  0  0  0  0  0  0  0  0  0  0  0
    1.6246    2.0166    0.0000 H   0  0  0  0  0  0  0  0  0  0  0  0
    1.8810    1.2275    0.0000 H   0  0  0  0  0  0  0  0  0  0  0  0
    5.7943    2.6720    0.0000 H   0  0  0  0  0  0  0  0  0  0  0  0
    5.0146    2.5062    0.0000 H   0  0  0  0  0  0  0  0  0  0  0  0
    6.0426    0.8157    0.0000 H   0  0  0  0  0  0  0  0  0  0  0  0
    6.5759    0.2234    0.0000 H   0  0  0  0  0  0  0  0  0  0  0  0
    7.4885    3.0321    0.0000 H   0  0  0  0  0  0  0  0  0  0  0  0
    6.7088    2.8664    0.0000 H   0  0  0  0  0  0  0  0  0  0  0  0
    7.3222   -0.0191    0.0000 H   0  0  0  0  0  0  0  0  0  0  0  0
    8.1018    0.1466    0.0000 H   0  0  0  0  0  0  0  0  0  0  0  0
    8.7681    2.1973    0.0000 H   0  0  0  0  0  0  0  0  0  0  0  0
    8.2348    2.7896    0.0000 H   0  0  0  0  0  0  0  0  0  0  0  0
    1.5970   -1.0134    0.0000 H   0  0  0  0  0  0  0  0  0  0  0  0
    9.0546   -0.5046    0.0000 H   0  0  0  0  0  0  0  0  0  0  0  0
    1.5970   -2.6334    0.0000 H   0  0  0  0  0  0  0  0  0  0  0  0
    4.7528   -0.1688    0.0000 H   0  0  0  0  0  0  0  0  0  0  0  0
    9.5522    2.9170    0.0000 H   0  0  0  0  0  0  0  0  0  0  0  0
    3.0000   -3.4434    0.0000 H   0  0  0  0  0  0  0  0  0  0  0  0
   10.5953   -1.0052    0.0000 H   0  0  0  0  0  0  0  0  0  0  0  0
   11.7992    0.0788    0.0000 H   0  0  0  0  0  0  0  0  0  0  0  0
   12.2039    2.0554    0.0000 H   0  0  0  0  0  0  0  0  0  0  0  0
   11.1905    3.4477    0.0000 H   0  0  0  0  0  0  0  0  0  0  0  0
    6.2018   -0.9905    0.0000 H   0  0  0  0  0  0  0  0  0  0  0  0
    6.2018   -2.6563    0.0000 H   0  0  0  0  0  0  0  0  0  0  0  0
  1  2  2  0  0  0  0
  1  3  2  0  0  0  0
  1  4  1  0  0  0  0
  1 19  1  0  0  0  0
  4  9  1  0  0  0  0
  4 13  1  0  0  0  0
  5 14  1  0  0  0  0
  5 15  1  0  0  0  0
  5 16  1  0  0  0  0
  6 17  1  0  0  0  0
  6 18  1  0  0  0  0
  6 20  1  0  0  0  0
  7 26  1  0  0  0  0
  7 33  1  0  0  0  0
  7 63  1  0  0  0  0
  8 25  1  0  0  0  0
  8 35  2  0  0  0  0
  9 10  1  0  0  0  0
  9 11  1  1  0  0  0
  9 36  1  0  0  0  0
 10 12  1  0  0  0  0
 10 37  1  0  0  0  0
 10 38  1  0  0  0  0
 11 14  1  0  0  0  0
 11 39  1  0  0  0  0
 11 40  1  0  0  0  0
 12 13  1  0  0  0  0
 12 41  1  0  0  0  0
 12 42  1  0  0  0  0
 13 43  1  0  0  0  0
 13 44  1  0  0  0  0
 14 45  1  0  0  0  0
 14 46  1  0  0  0  0
 15 17  1  0  0  0  0
 15 47  1  0  0  0  0
 15 48  1  0  0  0  0
 16 18  1  0  0  0  0
 16 49  1  0  0  0  0
 16 50  1  0  0  0  0
 17 51  1  0  0  0  0
 17 52  1  0  0  0  0
 18 53  1  0  0  0  0
 18 54  1  0  0  0  0
 19 21  1  0  0  0  0
 19 22  2  0  0  0  0
 20 23  1  0  0  0  0
 20 24  2  0  0  0  0
 21 25  2  0  0  0  0
 21 28  1  0  0  0  0
 22 27  1  0  0  0  0
 22 55  1  0  0  0  0
 23 26  2  0  0  0  0
 23 29  1  0  0  0  0
 24 31  1  0  0  0  0
 24 56  1  0  0  0  0
 25 30  1  0  0  0  0
 26 32  1  0  0  0  0
 27 30  2  0  0  0  0
 27 57  1  0  0  0  0
 28 34  2  0  0  0  0
 28 58  1  0  0  0  0
 29 33  2  0  0  0  0
 29 59  1  0  0  0  0
 30 60  1  0  0  0  0
 31 32  2  0  0  0  0
 31 61  1  0  0  0  0
 32 62  1  0  0  0  0
 33 64  1  0  0  0  0
 34 35  1  0  0  0  0
 34 65  1  0  0  0  0
 35 66  1  0  0  0  0
M  END
> <PUBCHEM_COMPOUND_CID>
145982506

> <PUBCHEM_COMPOUND_CANONICALIZED>
1

> <PUBCHEM_CACTVS_COMPLEXITY>
811

> <PUBCHEM_CACTVS_HBOND_ACCEPTOR>
6

> <PUBCHEM_CACTVS_HBOND_DONOR>
1

> <PUBCHEM_CACTVS_ROTATABLE_BOND>
6

> <PUBCHEM_CACTVS_SUBSKEYS>
AAADceB7sABAAAAAAAAAAAAAAAAAAWLAAAA8eIEAAAAAAFix/gAAHAQQQAAADCjBXgQ8wfPJkAKgAzRnRHDCgDAxAiAI2bg4ZJgIYOLA0dGUJAxgkADIyAcQgIAOAAAAACQGAAAAAAAASAwAAAAAAAAAAA==

> <PUBCHEM_IUPAC_OPENEYE_NAME>
5-[(2S)-2-[2-[4-(1H-indol-4-yl)piperazin-1-yl]ethyl]pyrrolidin-1-yl]sulfonylquinoline

> <PUBCHEM_IUPAC_CAS_NAME>
5-[[(2S)-2-[2-[4-(1H-indol-4-yl)-1-piperazinyl]ethyl]-1-pyrrolidinyl]sulfonyl]quinoline

> <PUBCHEM_IUPAC_NAME_MARKUP>
5-[(2<I>S</I>)-2-[2-[4-(1<I>H</I>-indol-4-yl)piperazin-1-yl]ethyl]pyrrolidin-1-yl]sulfonylquinoline

> <PUBCHEM_IUPAC_NAME>
5-[(2S)-2-[2-[4-(1H-indol-4-yl)piperazin-1-yl]ethyl]pyrrolidin-1-yl]sulfonylquinoline

> <PUBCHEM_IUPAC_SYSTEMATIC_NAME>
5-[(2S)-2-[2-[4-(1H-indol-4-yl)piperazin-1-yl]ethyl]pyrrolidin-1-yl]sulfonylquinoline

> <PUBCHEM_IUPAC_TRADITIONAL_NAME>
5-[(2S)-2-[2-[4-(1H-indol-4-yl)piperazino]ethyl]pyrrolidino]sulfonylquinoline

> <PUBCHEM_IUPAC_INCHI>
InChI=1S/C27H31N5O2S/c33-35(34,27-10-2-8-25-23(27)6-3-13-28-25)32-15-4-5-21(32)12-16-30-17-19-31(20-18-30)26-9-1-7-24-22(26)11-14-29-24/h1-3,6-11,13-14,21,29H,4-5,12,15-20H2/t21-/m0/s1

> <PUBCHEM_IUPAC_INCHIKEY>
XTHNKXHWYMMNTD-NRFANRHFSA-N

> <PUBCHEM_XLOGP3_AA>
4

> <PUBCHEM_EXACT_MASS>
489.21984642

> <PUBCHEM_MOLECULAR_FORMULA>
C27H31N5O2S

> <PUBCHEM_MOLECULAR_WEIGHT>
489.6

> <PUBCHEM_OPENEYE_CAN_SMILES>
C1CC(N(C1)S(=O)(=O)C2=CC=CC3=C2C=CC=N3)CCN4CCN(CC4)C5=CC=CC6=C5C=CN6

> <PUBCHEM_OPENEYE_ISO_SMILES>
C1C[C@H](N(C1)S(=O)(=O)C2=CC=CC3=C2C=CC=N3)CCN4CCN(CC4)C5=CC=CC6=C5C=CN6

> <PUBCHEM_CACTVS_TPSA>
80.9

> <PUBCHEM_MONOISOTOPIC_WEIGHT>
489.21984642

> <PUBCHEM_TOTAL_CHARGE>
0

> <PUBCHEM_HEAVY_ATOM_COUNT>
35

> <PUBCHEM_ATOM_DEF_STEREO_COUNT>
1

> <PUBCHEM_ATOM_UDEF_STEREO_COUNT>
0

> <PUBCHEM_BOND_DEF_STEREO_COUNT>
0

> <PUBCHEM_BOND_UDEF_STEREO_COUNT>
0

> <PUBCHEM_ISOTOPIC_ATOM_COUNT>
0

> <PUBCHEM_COMPONENT_COUNT>
1

> <PUBCHEM_CACTVS_TAUTO_COUNT>
-1

> <PUBCHEM_COORDINATE_TYPE>
1
5
255

> <PUBCHEM_BONDANNOTATIONS>
19  21  8
19  22  8
20  23  8
20  24  8
21  25  8
21  28  8
22  27  8
23  26  8
23  29  8
24  31  8
25  30  8
26  32  8
27  30  8
28  34  8
29  33  8
31  32  8
34  35  8
7  26  8
7  33  8
8  25  8
8  35  8
9  11  5

$$$$
