44382118
  -OEChem-09292322212D

 46 49  0     1  0  0  0  0  0999 V2000
    5.5981   -0.7725    0.0000 O   0  0  0  0  0  0  0  0  0  0  0  0
    6.2331    2.9568    0.0000 O   0  0  0  0  0  0  0  0  0  0  0  0
    3.7398   -1.8646    0.0000 N   0  0  3  0  0  0  0  0  0  0  0  0
    3.7481   -0.7796    0.0000 C   0  0  1  0  0  0  0  0  0  0  0  0
    4.6461   -0.2518    0.0000 C   0  0  1  0  0  0  0  0  0  0  0  0
    2.8460   -0.2588    0.0000 C   0  0  0  0  0  0  0  0  0  0  0  0
    4.6301    0.7897    0.0000 C   0  0  0  0  0  0  0  0  0  0  0  0
    2.8541    0.7828    0.0000 C   0  0  0  0  0  0  0  0  0  0  0  0
    3.7641    1.2897    0.0000 C   0  0  0  0  0  0  0  0  0  0  0  0
    4.6794   -2.4070    0.0000 C   0  0  0  0  0  0  0  0  0  0  0  0
    2.8718   -2.3612    0.0000 C   0  0  0  0  0  0  0  0  0  0  0  0
    5.6148   -1.8573    0.0000 C   0  0  0  0  0  0  0  0  0  0  0  0
    2.8680   -3.3612    0.0000 C   0  0  0  0  0  0  0  0  0  0  0  0
    5.4961    1.2897    0.0000 C   0  0  0  0  0  0  0  0  0  0  0  0
    3.7641    2.2897    0.0000 C   0  0  0  0  0  0  0  0  0  0  0  0
    4.6301    2.7897    0.0000 C   0  0  0  0  0  0  0  0  0  0  0  0
    5.4961    2.2897    0.0000 C   0  0  0  0  0  0  0  0  0  0  0  0
    4.8393    3.7615    0.0000 C   0  0  0  0  0  0  0  0  0  0  0  0
    2.0000   -3.8579    0.0000 C   0  0  0  0  0  0  0  0  0  0  0  0
    3.7320   -3.8645    0.0000 C   0  0  0  0  0  0  0  0  0  0  0  0
    5.8280    3.8645    0.0000 C   0  0  0  0  0  0  0  0  0  0  0  0
    3.0104   -1.2018    0.0000 H   0  0  0  0  0  0  0  0  0  0  0  0
    5.3739    0.1873    0.0000 H   0  0  0  0  0  0  0  0  0  0  0  0
    2.2360   -0.1480    0.0000 H   0  0  0  0  0  0  0  0  0  0  0  0
    2.6325   -0.8408    0.0000 H   0  0  0  0  0  0  0  0  0  0  0  0
    2.6495    1.3681    0.0000 H   0  0  0  0  0  0  0  0  0  0  0  0
    2.2424    0.6814    0.0000 H   0  0  0  0  0  0  0  0  0  0  0  0
    4.2821   -2.8830    0.0000 H   0  0  0  0  0  0  0  0  0  0  0  0
    5.0803   -2.8800    0.0000 H   0  0  0  0  0  0  0  0  0  0  0  0
    2.6620   -1.7778    0.0000 H   0  0  0  0  0  0  0  0  0  0  0  0
    2.2608   -2.4665    0.0000 H   0  0  0  0  0  0  0  0  0  0  0  0
    5.8328   -2.4377    0.0000 H   0  0  0  0  0  0  0  0  0  0  0  0
    6.2240   -1.7418    0.0000 H   0  0  0  0  0  0  0  0  0  0  0  0
    2.8656   -3.9812    0.0000 H   0  0  0  0  0  0  0  0  0  0  0  0
    6.0330    0.9797    0.0000 H   0  0  0  0  0  0  0  0  0  0  0  0
    3.2271    2.5997    0.0000 H   0  0  0  0  0  0  0  0  0  0  0  0
    4.8402    4.3815    0.0000 H   0  0  0  0  0  0  0  0  0  0  0  0
    4.2228    3.8275    0.0000 H   0  0  0  0  0  0  0  0  0  0  0  0
    1.6921   -3.3197    0.0000 H   0  0  0  0  0  0  0  0  0  0  0  0
    1.4619   -4.1658    0.0000 H   0  0  0  0  0  0  0  0  0  0  0  0
    2.3079   -4.3960    0.0000 H   0  0  0  0  0  0  0  0  0  0  0  0
    3.4200   -4.4003    0.0000 H   0  0  0  0  0  0  0  0  0  0  0  0
    4.2678   -4.1766    0.0000 H   0  0  0  0  0  0  0  0  0  0  0  0
    4.0441   -3.3288    0.0000 H   0  0  0  0  0  0  0  0  0  0  0  0
    6.4176    4.0563    0.0000 H   0  0  0  0  0  0  0  0  0  0  0  0
    5.6993    4.4710    0.0000 H   0  0  0  0  0  0  0  0  0  0  0  0
  1  5  1  0  0  0  0
  1 12  1  0  0  0  0
  2 17  1  0  0  0  0
  2 21  1  0  0  0  0
  3  4  1  0  0  0  0
  3 10  1  0  0  0  0
  3 11  1  0  0  0  0
  4  5  1  0  0  0  0
  4  6  1  0  0  0  0
  4 22  1  1  0  0  0
  5  7  1  0  0  0  0
  5 23  1  6  0  0  0
  6  8  1  0  0  0  0
  6 24  1  0  0  0  0
  6 25  1  0  0  0  0
  7  9  1  0  0  0  0
  7 14  2  0  0  0  0
  8  9  1  0  0  0  0
  8 26  1  0  0  0  0
  8 27  1  0  0  0  0
  9 15  2  0  0  0  0
 10 12  1  0  0  0  0
 10 28  1  0  0  0  0
 10 29  1  0  0  0  0
 11 13  1  0  0  0  0
 11 30  1  0  0  0  0
 11 31  1  0  0  0  0
 12 32  1  0  0  0  0
 12 33  1  0  0  0  0
 13 19  1  0  0  0  0
 13 20  1  0  0  0  0
 13 34  1  0  0  0  0
 14 17  1  0  0  0  0
 14 35  1  0  0  0  0
 15 16  1  0  0  0  0
 15 36  1  0  0  0  0
 16 17  2  0  0  0  0
 16 18  1  0  0  0  0
 18 21  1  0  0  0  0
 18 37  1  0  0  0  0
 18 38  1  0  0  0  0
 19 39  1  0  0  0  0
 19 40  1  0  0  0  0
 19 41  1  0  0  0  0
 20 42  1  0  0  0  0
 20 43  1  0  0  0  0
 20 44  1  0  0  0  0
 21 45  1  0  0  0  0
 21 46  1  0  0  0  0
M  END
> <PUBCHEM_COMPOUND_CID>
44382118

> <PUBCHEM_COMPOUND_CANONICALIZED>
1

> <PUBCHEM_CACTVS_COMPLEXITY>
372

> <PUBCHEM_CACTVS_HBOND_ACCEPTOR>
3

> <PUBCHEM_CACTVS_HBOND_DONOR>
0

> <PUBCHEM_CACTVS_ROTATABLE_BOND>
2

> <PUBCHEM_CACTVS_SUBSKEYS>
AAADceB6MAAAAAAAAAAAAAAAAAAAASAAAAA8YIAAAAAAAEjxAAAAHgAAAAAADTzhmAYyBoMABACAAiBCAAACCAAgIAAAiAAOCIgOJiKEsRuHOCCkwBGYqAfQ0PMO4AADAAAYAADQAAaAADAgAAAAAAAAAA==

> <PUBCHEM_IUPAC_OPENEYE_NAME>
(4aR,11bR)-4-isobutyl-2,3,4a,5,6,8,9,11b-octahydrobenzofuro[5,6-h][1,4]benzoxazine

> <PUBCHEM_IUPAC_CAS_NAME>
(4aR,11bR)-4-(2-methylpropyl)-2,3,4a,5,6,8,9,11b-octahydrobenzofuro[5,6-h][1,4]benzoxazine

> <PUBCHEM_IUPAC_NAME_MARKUP>
(4<I>a</I><I>R</I>,11<I>b</I><I>R</I>)-4-(2-methylpropyl)-2,3,4<I>a</I>,5,6,8,9,11<I>b</I>-octahydro-[1]benzofuro[5,6-h][1,4]benzoxazine

> <PUBCHEM_IUPAC_NAME>
(4aR,11bR)-4-(2-methylpropyl)-2,3,4a,5,6,8,9,11b-octahydro-[1]benzofuro[5,6-h][1,4]benzoxazine

> <PUBCHEM_IUPAC_SYSTEMATIC_NAME>
(4aR,11bR)-4-(2-methylpropyl)-2,3,4a,5,6,8,9,11b-octahydro-[1]benzofuro[5,6-h][1,4]benzoxazine

> <PUBCHEM_IUPAC_TRADITIONAL_NAME>
(4aR,11bR)-4-isobutyl-2,3,4a,5,6,8,9,11b-octahydrobenzofuro[5,6-h][1,4]benzoxazine

> <PUBCHEM_IUPAC_INCHI>
InChI=1S/C18H25NO2/c1-12(2)11-19-6-8-21-18-15-10-17-14(5-7-20-17)9-13(15)3-4-16(18)19/h9-10,12,16,18H,3-8,11H2,1-2H3/t16-,18-/m1/s1

> <PUBCHEM_IUPAC_INCHIKEY>
AAIDTVFHOXBFSJ-SJLPKXTDSA-N

> <PUBCHEM_XLOGP3_AA>
3.2

> <PUBCHEM_EXACT_MASS>
287.188529040

> <PUBCHEM_MOLECULAR_FORMULA>
C18H25NO2

> <PUBCHEM_MOLECULAR_WEIGHT>
287.4

> <PUBCHEM_OPENEYE_CAN_SMILES>
CC(C)CN1CCOC2C1CCC3=CC4=C(C=C23)OCC4

> <PUBCHEM_OPENEYE_ISO_SMILES>
CC(C)CN1CCO[C@H]2[C@H]1CCC3=CC4=C(C=C23)OCC4

> <PUBCHEM_CACTVS_TPSA>
21.7

> <PUBCHEM_MONOISOTOPIC_WEIGHT>
287.188529040

> <PUBCHEM_TOTAL_CHARGE>
0

> <PUBCHEM_HEAVY_ATOM_COUNT>
21

> <PUBCHEM_ATOM_DEF_STEREO_COUNT>
2

> <PUBCHEM_ATOM_UDEF_STEREO_COUNT>
0

> <PUBCHEM_BOND_DEF_STEREO_COUNT>
0

> <PUBCHEM_BOND_UDEF_STEREO_COUNT>
0

> <PUBCHEM_ISOTOPIC_ATOM_COUNT>
0

> <PUBCHEM_COMPONENT_COUNT>
1

> <PUBCHEM_CACTVS_TAUTO_COUNT>
-1

> <PUBCHEM_COORDINATE_TYPE>
1
5
255

> <PUBCHEM_BONDANNOTATIONS>
14  17  8
15  16  8
16  17  8
4  22  5
5  23  6
7  14  8
7  9  8
9  15  8

$$$$
