11211017
  -OEChem-09292322102D

 55 58  0     0  0  0  0  0  0999 V2000
    2.0000    0.8660    0.0000 F   0  0  0  0  0  0  0  0  0  0  0  0
   10.5000    1.7320    0.0000 O   0  0  0  0  0  0  0  0  0  0  0  0
   10.5000   -1.7320    0.0000 O   0  0  0  0  0  0  0  0  0  0  0  0
   10.5000    0.0000    0.0000 N   0  0  0  0  0  0  0  0  0  0  0  0
    8.0000    0.8660    0.0000 N   0  0  0  0  0  0  0  0  0  0  0  0
    6.0000    0.8660    0.0000 N   0  0  0  0  0  0  0  0  0  0  0  0
   12.5000    0.0000    0.0000 C   0  0  0  0  0  0  0  0  0  0  0  0
   13.0878    0.8090    0.0000 C   0  0  0  0  0  0  0  0  0  0  0  0
   13.0878   -0.8090    0.0000 C   0  0  0  0  0  0  0  0  0  0  0  0
   12.0000    0.8660    0.0000 C   0  0  0  0  0  0  0  0  0  0  0  0
   12.0000   -0.8660    0.0000 C   0  0  0  0  0  0  0  0  0  0  0  0
   14.0388    0.5000    0.0000 C   0  0  0  0  0  0  0  0  0  0  0  0
   14.0388   -0.5000    0.0000 C   0  0  0  0  0  0  0  0  0  0  0  0
   11.0000    0.8660    0.0000 C   0  0  0  0  0  0  0  0  0  0  0  0
   11.0000   -0.8660    0.0000 C   0  0  0  0  0  0  0  0  0  0  0  0
    9.5000   -0.0000    0.0000 C   0  0  0  0  0  0  0  0  0  0  0  0
    9.0000    0.8660    0.0000 C   0  0  0  0  0  0  0  0  0  0  0  0
    7.5000   -0.0000    0.0000 C   0  0  0  0  0  0  0  0  0  0  0  0
    7.5000    1.7320    0.0000 C   0  0  0  0  0  0  0  0  0  0  0  0
    6.5000   -0.0000    0.0000 C   0  0  0  0  0  0  0  0  0  0  0  0
    6.5000    1.7320    0.0000 C   0  0  0  0  0  0  0  0  0  0  0  0
    5.0000    0.8660    0.0000 C   0  0  0  0  0  0  0  0  0  0  0  0
    4.5000    1.7320    0.0000 C   0  0  0  0  0  0  0  0  0  0  0  0
    4.5000   -0.0000    0.0000 C   0  0  0  0  0  0  0  0  0  0  0  0
    3.5000    1.7320    0.0000 C   0  0  0  0  0  0  0  0  0  0  0  0
    3.5000   -0.0000    0.0000 C   0  0  0  0  0  0  0  0  0  0  0  0
    3.0000    0.8660    0.0000 C   0  0  0  0  0  0  0  0  0  0  0  0
   13.3400    1.3754    0.0000 H   0  0  0  0  0  0  0  0  0  0  0  0
   12.5508    1.1190    0.0000 H   0  0  0  0  0  0  0  0  0  0  0  0
   12.5508   -1.1190    0.0000 H   0  0  0  0  0  0  0  0  0  0  0  0
   13.3400   -1.3754    0.0000 H   0  0  0  0  0  0  0  0  0  0  0  0
   12.5826    1.0781    0.0000 H   0  0  0  0  0  0  0  0  0  0  0  0
   11.8923    1.4766    0.0000 H   0  0  0  0  0  0  0  0  0  0  0  0
   11.8923   -1.4766    0.0000 H   0  0  0  0  0  0  0  0  0  0  0  0
   12.5826   -1.0781    0.0000 H   0  0  0  0  0  0  0  0  0  0  0  0
   14.6554    0.4352    0.0000 H   0  0  0  0  0  0  0  0  0  0  0  0
   14.1677    1.1064    0.0000 H   0  0  0  0  0  0  0  0  0  0  0  0
   14.1677   -1.1064    0.0000 H   0  0  0  0  0  0  0  0  0  0  0  0
   14.6554   -0.4352    0.0000 H   0  0  0  0  0  0  0  0  0  0  0  0
    8.9174   -0.2121    0.0000 H   0  0  0  0  0  0  0  0  0  0  0  0
    9.6077   -0.6106    0.0000 H   0  0  0  0  0  0  0  0  0  0  0  0
    9.5826    1.0781    0.0000 H   0  0  0  0  0  0  0  0  0  0  0  0
    8.8923    1.4766    0.0000 H   0  0  0  0  0  0  0  0  0  0  0  0
    7.3923   -0.6106    0.0000 H   0  0  0  0  0  0  0  0  0  0  0  0
    8.0826   -0.2121    0.0000 H   0  0  0  0  0  0  0  0  0  0  0  0
    8.0826    1.9441    0.0000 H   0  0  0  0  0  0  0  0  0  0  0  0
    7.3923    2.3426    0.0000 H   0  0  0  0  0  0  0  0  0  0  0  0
    5.9174   -0.2121    0.0000 H   0  0  0  0  0  0  0  0  0  0  0  0
    6.6077   -0.6106    0.0000 H   0  0  0  0  0  0  0  0  0  0  0  0
    6.6077    2.3426    0.0000 H   0  0  0  0  0  0  0  0  0  0  0  0
    5.9174    1.9441    0.0000 H   0  0  0  0  0  0  0  0  0  0  0  0
    4.8100    2.2690    0.0000 H   0  0  0  0  0  0  0  0  0  0  0  0
    4.8100   -0.5369    0.0000 H   0  0  0  0  0  0  0  0  0  0  0  0
    3.1900    2.2690    0.0000 H   0  0  0  0  0  0  0  0  0  0  0  0
    3.1900   -0.5369    0.0000 H   0  0  0  0  0  0  0  0  0  0  0  0
  1 27  1  0  0  0  0
  2 14  2  0  0  0  0
  3 15  2  0  0  0  0
  4 14  1  0  0  0  0
  4 15  1  0  0  0  0
  4 16  1  0  0  0  0
  5 17  1  0  0  0  0
  5 18  1  0  0  0  0
  5 19  1  0  0  0  0
  6 20  1  0  0  0  0
  6 21  1  0  0  0  0
  6 22  1  0  0  0  0
  7  8  1  0  0  0  0
  7  9  1  0  0  0  0
  7 10  1  0  0  0  0
  7 11  1  0  0  0  0
  8 12  1  0  0  0  0
  8 28  1  0  0  0  0
  8 29  1  0  0  0  0
  9 13  1  0  0  0  0
  9 30  1  0  0  0  0
  9 31  1  0  0  0  0
 10 14  1  0  0  0  0
 10 32  1  0  0  0  0
 10 33  1  0  0  0  0
 11 15  1  0  0  0  0
 11 34  1  0  0  0  0
 11 35  1  0  0  0  0
 12 13  1  0  0  0  0
 12 36  1  0  0  0  0
 12 37  1  0  0  0  0
 13 38  1  0  0  0  0
 13 39  1  0  0  0  0
 16 17  1  0  0  0  0
 16 40  1  0  0  0  0
 16 41  1  0  0  0  0
 17 42  1  0  0  0  0
 17 43  1  0  0  0  0
 18 20  1  0  0  0  0
 18 44  1  0  0  0  0
 18 45  1  0  0  0  0
 19 21  1  0  0  0  0
 19 46  1  0  0  0  0
 19 47  1  0  0  0  0
 20 48  1  0  0  0  0
 20 49  1  0  0  0  0
 21 50  1  0  0  0  0
 21 51  1  0  0  0  0
 22 23  2  0  0  0  0
 22 24  1  0  0  0  0
 23 25  1  0  0  0  0
 23 52  1  0  0  0  0
 24 26  2  0  0  0  0
 24 53  1  0  0  0  0
 25 27  2  0  0  0  0
 25 54  1  0  0  0  0
 26 27  1  0  0  0  0
 26 55  1  0  0  0  0
M  END
> <PUBCHEM_COMPOUND_CID>
11211017

> <PUBCHEM_COMPOUND_CANONICALIZED>
1

> <PUBCHEM_CACTVS_COMPLEXITY>
528

> <PUBCHEM_CACTVS_HBOND_ACCEPTOR>
5

> <PUBCHEM_CACTVS_HBOND_DONOR>
0

> <PUBCHEM_CACTVS_ROTATABLE_BOND>
4

> <PUBCHEM_CACTVS_SUBSKEYS>
AAADceB7MQAAAAAAAAAAAAAAAAAAAYAAAAA8WIAAAAAAAAABAAAAHwAAAAAADgjBkAwwwIMAAACIACVSUACCAAAhAgAIiAEIZIgIYDLAkZGUIAhghiDIyAcYiwCPAAAAAAAAAAAAAAAAAAAAAAAAAAAAAA==

> <PUBCHEM_IUPAC_OPENEYE_NAME>
8-[2-[4-(4-fluorophenyl)piperazin-1-yl]ethyl]-8-azaspiro[4.5]decane-7,9-dione

> <PUBCHEM_IUPAC_CAS_NAME>
8-[2-[4-(4-fluorophenyl)-1-piperazinyl]ethyl]-8-azaspiro[4.5]decane-7,9-dione

> <PUBCHEM_IUPAC_NAME_MARKUP>
8-[2-[4-(4-fluorophenyl)piperazin-1-yl]ethyl]-8-azaspiro[4.5]decane-7,9-dione

> <PUBCHEM_IUPAC_NAME>
8-[2-[4-(4-fluorophenyl)piperazin-1-yl]ethyl]-8-azaspiro[4.5]decane-7,9-dione

> <PUBCHEM_IUPAC_SYSTEMATIC_NAME>
8-[2-[4-(4-fluorophenyl)piperazin-1-yl]ethyl]-8-azaspiro[4.5]decane-7,9-dione

> <PUBCHEM_IUPAC_TRADITIONAL_NAME>
8-[2-[4-(4-fluorophenyl)piperazino]ethyl]-8-azaspiro[4.5]decane-7,9-quinone

> <PUBCHEM_IUPAC_INCHI>
InChI=1S/C21H28FN3O2/c22-17-3-5-18(6-4-17)24-12-9-23(10-13-24)11-14-25-19(26)15-21(16-20(25)27)7-1-2-8-21/h3-6H,1-2,7-16H2

> <PUBCHEM_IUPAC_INCHIKEY>
YSLMGFFVMWWPSA-UHFFFAOYSA-N

> <PUBCHEM_XLOGP3_AA>
2.9

> <PUBCHEM_EXACT_MASS>
373.21655531

> <PUBCHEM_MOLECULAR_FORMULA>
C21H28FN3O2

> <PUBCHEM_MOLECULAR_WEIGHT>
373.5

> <PUBCHEM_OPENEYE_CAN_SMILES>
C1CCC2(C1)CC(=O)N(C(=O)C2)CCN3CCN(CC3)C4=CC=C(C=C4)F

> <PUBCHEM_OPENEYE_ISO_SMILES>
C1CCC2(C1)CC(=O)N(C(=O)C2)CCN3CCN(CC3)C4=CC=C(C=C4)F

> <PUBCHEM_CACTVS_TPSA>
43.9

> <PUBCHEM_MONOISOTOPIC_WEIGHT>
373.21655531

> <PUBCHEM_TOTAL_CHARGE>
0

> <PUBCHEM_HEAVY_ATOM_COUNT>
27

> <PUBCHEM_ATOM_DEF_STEREO_COUNT>
0

> <PUBCHEM_ATOM_UDEF_STEREO_COUNT>
0

> <PUBCHEM_BOND_DEF_STEREO_COUNT>
0

> <PUBCHEM_BOND_UDEF_STEREO_COUNT>
0

> <PUBCHEM_ISOTOPIC_ATOM_COUNT>
0

> <PUBCHEM_COMPONENT_COUNT>
1

> <PUBCHEM_CACTVS_TAUTO_COUNT>
-1

> <PUBCHEM_COORDINATE_TYPE>
1
5
255

> <PUBCHEM_BONDANNOTATIONS>
22  23  8
22  24  8
23  25  8
24  26  8
25  27  8
26  27  8

$$$$
