44404454
  -OEChem-09292322492D

 55 59  0     1  0  0  0  0  0999 V2000
    3.4702    4.4422    0.0000 Cl  0  0  0  0  0  0  0  0  0  0  0  0
    4.9556   -4.6502    0.0000 S   0  0  0  0  0  0  0  0  0  0  0  0
    8.7323    2.4180    0.0000 O   0  0  0  0  0  0  0  0  0  0  0  0
    4.4033   -0.1265    0.0000 N   0  0  0  0  0  0  0  0  0  0  0  0
    4.4264   -2.1264    0.0000 N   0  0  0  0  0  0  0  0  0  0  0  0
    7.0003    2.4180    0.0000 N   0  0  0  0  0  0  0  0  0  0  0  0
    5.2494   -3.7006    0.0000 N   0  0  0  0  0  0  0  0  0  0  0  0
    5.2750   -0.6165    0.0000 C   0  0  0  0  0  0  0  0  0  0  0  0
    3.5431   -0.6365    0.0000 C   0  0  0  0  0  0  0  0  0  0  0  0
    4.3917    0.8734    0.0000 C   0  0  0  0  0  0  0  0  0  0  0  0
    5.2866   -1.6164    0.0000 C   0  0  0  0  0  0  0  0  0  0  0  0
    3.5546   -1.6364    0.0000 C   0  0  0  0  0  0  0  0  0  0  0  0
    5.2519    1.3834    0.0000 C   0  0  0  0  0  0  0  0  0  0  0  0
    5.2403    2.3834    0.0000 C   0  0  0  0  0  0  0  0  0  0  0  0
    7.0003    4.4180    0.0000 C   0  0  3  0  0  0  0  0  0  0  0  0
    6.1343    2.9180    0.0000 C   0  0  0  0  0  0  0  0  0  0  0  0
    6.1343    3.9180    0.0000 C   0  0  0  0  0  0  0  0  0  0  0  0
    7.8663    3.9180    0.0000 C   0  0  0  0  0  0  0  0  0  0  0  0
    4.4380   -3.1263    0.0000 C   0  0  0  0  0  0  0  0  0  0  0  0
    4.3342    2.8972    0.0000 C   0  0  0  0  0  0  0  0  0  0  0  0
    5.2403    4.4527    0.0000 C   0  0  0  0  0  0  0  0  0  0  0  0
    7.8663    2.9180    0.0000 C   0  0  0  0  0  0  0  0  0  0  0  0
    7.0003    5.4180    0.0000 C   0  0  0  0  0  0  0  0  0  0  0  0
    3.6400   -3.7192    0.0000 C   0  0  0  0  0  0  0  0  0  0  0  0
    4.3342    3.9388    0.0000 C   0  0  0  0  0  0  0  0  0  0  0  0
    3.9616   -4.6660    0.0000 C   0  0  0  0  0  0  0  0  0  0  0  0
    2.6592   -3.5243    0.0000 C   0  0  0  0  0  0  0  0  0  0  0  0
    3.3025   -5.4180    0.0000 C   0  0  0  0  0  0  0  0  0  0  0  0
    2.0000   -4.2763    0.0000 C   0  0  0  0  0  0  0  0  0  0  0  0
    2.3216   -5.2231    0.0000 C   0  0  0  0  0  0  0  0  0  0  0  0
    5.8868   -0.7170    0.0000 H   0  0  0  0  0  0  0  0  0  0  0  0
    5.4803   -0.0314    0.0000 H   0  0  0  0  0  0  0  0  0  0  0  0
    3.3243   -0.0564    0.0000 H   0  0  0  0  0  0  0  0  0  0  0  0
    2.9338   -0.7512    0.0000 H   0  0  0  0  0  0  0  0  0  0  0  0
    4.1729    1.4535    0.0000 H   0  0  0  0  0  0  0  0  0  0  0  0
    3.7824    0.7587    0.0000 H   0  0  0  0  0  0  0  0  0  0  0  0
    5.5054   -2.1965    0.0000 H   0  0  0  0  0  0  0  0  0  0  0  0
    5.8959   -1.5017    0.0000 H   0  0  0  0  0  0  0  0  0  0  0  0
    2.9428   -1.5358    0.0000 H   0  0  0  0  0  0  0  0  0  0  0  0
    3.3493   -2.2214    0.0000 H   0  0  0  0  0  0  0  0  0  0  0  0
    5.4707    0.8033    0.0000 H   0  0  0  0  0  0  0  0  0  0  0  0
    5.8612    1.4981    0.0000 H   0  0  0  0  0  0  0  0  0  0  0  0
    7.5372    4.7280    0.0000 H   0  0  0  0  0  0  0  0  0  0  0  0
    8.4769    3.8104    0.0000 H   0  0  0  0  0  0  0  0  0  0  0  0
    8.0784    4.5006    0.0000 H   0  0  0  0  0  0  0  0  0  0  0  0
    7.0003    1.7980    0.0000 H   0  0  0  0  0  0  0  0  0  0  0  0
    3.7985    2.5851    0.0000 H   0  0  0  0  0  0  0  0  0  0  0  0
    5.2475    5.0726    0.0000 H   0  0  0  0  0  0  0  0  0  0  0  0
    7.6203    5.4180    0.0000 H   0  0  0  0  0  0  0  0  0  0  0  0
    7.0003    6.0380    0.0000 H   0  0  0  0  0  0  0  0  0  0  0  0
    6.3803    5.4180    0.0000 H   0  0  0  0  0  0  0  0  0  0  0  0
    2.4598   -2.9372    0.0000 H   0  0  0  0  0  0  0  0  0  0  0  0
    3.5019   -6.0051    0.0000 H   0  0  0  0  0  0  0  0  0  0  0  0
    1.3919   -4.1554    0.0000 H   0  0  0  0  0  0  0  0  0  0  0  0
    1.9129   -5.6893    0.0000 H   0  0  0  0  0  0  0  0  0  0  0  0
  1 25  1  0  0  0  0
  2  7  1  0  0  0  0
  2 26  1  0  0  0  0
  3 22  2  0  0  0  0
  4  8  1  0  0  0  0
  4  9  1  0  0  0  0
  4 10  1  0  0  0  0
  5 11  1  0  0  0  0
  5 12  1  0  0  0  0
  5 19  1  0  0  0  0
  6 16  1  0  0  0  0
  6 22  1  0  0  0  0
  6 46  1  0  0  0  0
  7 19  2  0  0  0  0
  8 11  1  0  0  0  0
  8 31  1  0  0  0  0
  8 32  1  0  0  0  0
  9 12  1  0  0  0  0
  9 33  1  0  0  0  0
  9 34  1  0  0  0  0
 10 13  1  0  0  0  0
 10 35  1  0  0  0  0
 10 36  1  0  0  0  0
 11 37  1  0  0  0  0
 11 38  1  0  0  0  0
 12 39  1  0  0  0  0
 12 40  1  0  0  0  0
 13 14  1  0  0  0  0
 13 41  1  0  0  0  0
 13 42  1  0  0  0  0
 14 16  2  0  0  0  0
 14 20  1  0  0  0  0
 15 17  1  0  0  0  0
 15 18  1  0  0  0  0
 15 23  1  0  0  0  0
 15 43  1  0  0  0  0
 16 17  1  0  0  0  0
 17 21  2  0  0  0  0
 18 22  1  0  0  0  0
 18 44  1  0  0  0  0
 18 45  1  0  0  0  0
 19 24  1  0  0  0  0
 20 25  2  0  0  0  0
 20 47  1  0  0  0  0
 21 25  1  0  0  0  0
 21 48  1  0  0  0  0
 23 49  1  0  0  0  0
 23 50  1  0  0  0  0
 23 51  1  0  0  0  0
 24 26  1  0  0  0  0
 24 27  2  0  0  0  0
 26 28  2  0  0  0  0
 27 29  1  0  0  0  0
 27 52  1  0  0  0  0
 28 30  1  0  0  0  0
 28 53  1  0  0  0  0
 29 30  2  0  0  0  0
 29 54  1  0  0  0  0
 30 55  1  0  0  0  0
M  END
> <PUBCHEM_COMPOUND_CID>
44404454

> <PUBCHEM_COMPOUND_CANONICALIZED>
1

> <PUBCHEM_CACTVS_COMPLEXITY>
616

> <PUBCHEM_CACTVS_HBOND_ACCEPTOR>
5

> <PUBCHEM_CACTVS_HBOND_DONOR>
1

> <PUBCHEM_CACTVS_ROTATABLE_BOND>
4

> <PUBCHEM_CACTVS_SUBSKEYS>
AAADceB7oABEAAAAAAAAAAAAAAAAAWAAAAA8eIEAAAAAAFix9AAAHgYQQAAADQrB2iQz8dPAAACsAidycACDABAhBQBJmDkoRpiIYLLBm5GUIAxglALIyAcYicCegABCIAAGAAAAAIRAAAwAAAAAAAAAAA==

> <PUBCHEM_IUPAC_OPENEYE_NAME>
8-[2-[4-(1,2-benzothiazol-3-yl)piperazin-1-yl]ethyl]-6-chloro-4-methyl-3,4-dihydro-1H-quinolin-2-one

> <PUBCHEM_IUPAC_CAS_NAME>
8-[2-[4-(1,2-benzothiazol-3-yl)-1-piperazinyl]ethyl]-6-chloro-4-methyl-3,4-dihydro-1H-quinolin-2-one

> <PUBCHEM_IUPAC_NAME_MARKUP>
8-[2-[4-(1,2-benzothiazol-3-yl)piperazin-1-yl]ethyl]-6-chloro-4-methyl-3,4-dihydro-1<I>H</I>-quinolin-2-one

> <PUBCHEM_IUPAC_NAME>
8-[2-[4-(1,2-benzothiazol-3-yl)piperazin-1-yl]ethyl]-6-chloro-4-methyl-3,4-dihydro-1H-quinolin-2-one

> <PUBCHEM_IUPAC_SYSTEMATIC_NAME>
8-[2-[4-(1,2-benzothiazol-3-yl)piperazin-1-yl]ethyl]-6-chloranyl-4-methyl-3,4-dihydro-1H-quinolin-2-one

> <PUBCHEM_IUPAC_TRADITIONAL_NAME>
8-[2-[4-(1,2-benzothiazol-3-yl)piperazino]ethyl]-6-chloro-4-methyl-3,4-dihydrocarbostyril

> <PUBCHEM_IUPAC_INCHI>
InChI=1S/C23H25ClN4OS/c1-15-12-21(29)25-22-16(13-17(24)14-19(15)22)6-7-27-8-10-28(11-9-27)23-18-4-2-3-5-20(18)30-26-23/h2-5,13-15H,6-12H2,1H3,(H,25,29)

> <PUBCHEM_IUPAC_INCHIKEY>
RBLPPBDKZLTTRW-UHFFFAOYSA-N

> <PUBCHEM_XLOGP3_AA>
4.6

> <PUBCHEM_EXACT_MASS>
440.1437603

> <PUBCHEM_MOLECULAR_FORMULA>
C23H25ClN4OS

> <PUBCHEM_MOLECULAR_WEIGHT>
441.0

> <PUBCHEM_OPENEYE_CAN_SMILES>
CC1CC(=O)NC2=C(C=C(C=C12)Cl)CCN3CCN(CC3)C4=NSC5=CC=CC=C54

> <PUBCHEM_OPENEYE_ISO_SMILES>
CC1CC(=O)NC2=C(C=C(C=C12)Cl)CCN3CCN(CC3)C4=NSC5=CC=CC=C54

> <PUBCHEM_CACTVS_TPSA>
76.7

> <PUBCHEM_MONOISOTOPIC_WEIGHT>
440.1437603

> <PUBCHEM_TOTAL_CHARGE>
0

> <PUBCHEM_HEAVY_ATOM_COUNT>
30

> <PUBCHEM_ATOM_DEF_STEREO_COUNT>
0

> <PUBCHEM_ATOM_UDEF_STEREO_COUNT>
1

> <PUBCHEM_BOND_DEF_STEREO_COUNT>
0

> <PUBCHEM_BOND_UDEF_STEREO_COUNT>
0

> <PUBCHEM_ISOTOPIC_ATOM_COUNT>
0

> <PUBCHEM_COMPONENT_COUNT>
1

> <PUBCHEM_CACTVS_TAUTO_COUNT>
-1

> <PUBCHEM_COORDINATE_TYPE>
1
5
255

> <PUBCHEM_BONDANNOTATIONS>
14  16  8
14  20  8
15  23  3
16  17  8
17  21  8
19  24  8
2  26  8
2  7  8
20  25  8
21  25  8
24  26  8
24  27  8
26  28  8
27  29  8
28  30  8
29  30  8
7  19  8

$$$$
