44627358
  -OEChem-09292322482D

 58 61  0     1  0  0  0  0  0999 V2000
    5.8218    0.0000    0.0000 Cl  0  0  0  0  0  0  0  0  0  0  0  0
    5.5067    3.3091    0.0000 S   0  0  0  0  0  0  0  0  0  0  0  0
    8.3135    8.5411    0.0000 F   0  0  0  0  0  0  0  0  0  0  0  0
   12.6436    9.0411    0.0000 F   0  0  0  0  0  0  0  0  0  0  0  0
   11.2776    9.4072    0.0000 F   0  0  0  0  0  0  0  0  0  0  0  0
   12.2776    7.6751    0.0000 F   0  0  0  0  0  0  0  0  0  0  0  0
    1.2078    4.0878    0.0000 O   0  0  0  0  0  0  0  0  0  0  0  0
    8.5067    5.0411    0.0000 N   0  0  3  0  0  0  0  0  0  0  0  0
    3.9189    4.1181    0.0000 N   0  0  0  0  0  0  0  0  0  0  0  0
    3.9189    2.5001    0.0000 N   0  0  0  0  0  0  0  0  0  0  0  0
    2.9679    2.8091    0.0000 N   0  0  0  0  0  0  0  0  0  0  0  0
    1.2078    5.7059    0.0000 N   0  0  0  0  0  0  0  0  0  0  0  0
   10.0455    5.5411    0.0000 C   0  0  3  0  0  0  0  0  0  0  0  0
   10.0455    4.5411    0.0000 C   0  0  3  0  0  0  0  0  0  0  0  0
   10.9121    5.0411    0.0000 C   0  0  0  0  0  0  0  0  0  0  0  0
    9.0945    5.8501    0.0000 C   0  0  0  0  0  0  0  0  0  0  0  0
    9.0945    4.2321    0.0000 C   0  0  0  0  0  0  0  0  0  0  0  0
   10.0455    6.5411    0.0000 C   0  0  0  0  0  0  0  0  0  0  0  0
    7.5067    5.0411    0.0000 C   0  0  0  0  0  0  0  0  0  0  0  0
   10.9116    7.0411    0.0000 C   0  0  0  0  0  0  0  0  0  0  0  0
    9.1795    7.0411    0.0000 C   0  0  0  0  0  0  0  0  0  0  0  0
    7.0067    4.1751    0.0000 C   0  0  0  0  0  0  0  0  0  0  0  0
   10.9116    8.0411    0.0000 C   0  0  0  0  0  0  0  0  0  0  0  0
    9.1795    8.0411    0.0000 C   0  0  0  0  0  0  0  0  0  0  0  0
   10.0455    8.5411    0.0000 C   0  0  0  0  0  0  0  0  0  0  0  0
    6.0067    4.1751    0.0000 C   0  0  0  0  0  0  0  0  0  0  0  0
   11.7776    8.5411    0.0000 C   0  0  0  0  0  0  0  0  0  0  0  0
    4.5067    3.3091    0.0000 C   0  0  0  0  0  0  0  0  0  0  0  0
    2.9679    3.8091    0.0000 C   0  0  0  0  0  0  0  0  0  0  0  0
    4.2279    5.0691    0.0000 C   0  0  0  0  0  0  0  0  0  0  0  0
    2.1588    4.3969    0.0000 C   0  0  0  0  0  0  0  0  0  0  0  0
    2.1588    5.3969    0.0000 C   0  0  0  0  0  0  0  0  0  0  0  0
    2.9679    5.9846    0.0000 C   0  0  0  0  0  0  0  0  0  0  0  0
    0.6200    4.8969    0.0000 C   0  0  0  0  0  0  0  0  0  0  0  0
   10.2976    3.9747    0.0000 H   0  0  0  0  0  0  0  0  0  0  0  0
   11.3106    4.5662    0.0000 H   0  0  0  0  0  0  0  0  0  0  0  0
   11.3106    5.5161    0.0000 H   0  0  0  0  0  0  0  0  0  0  0  0
    9.3467    6.4165    0.0000 H   0  0  0  0  0  0  0  0  0  0  0  0
    8.5576    6.1601    0.0000 H   0  0  0  0  0  0  0  0  0  0  0  0
    8.5576    3.9221    0.0000 H   0  0  0  0  0  0  0  0  0  0  0  0
    9.3467    3.6657    0.0000 H   0  0  0  0  0  0  0  0  0  0  0  0
    7.6144    5.6517    0.0000 H   0  0  0  0  0  0  0  0  0  0  0  0
    6.9241    5.2532    0.0000 H   0  0  0  0  0  0  0  0  0  0  0  0
   11.4485    6.7311    0.0000 H   0  0  0  0  0  0  0  0  0  0  0  0
    8.6426    6.7311    0.0000 H   0  0  0  0  0  0  0  0  0  0  0  0
    6.8990    3.5645    0.0000 H   0  0  0  0  0  0  0  0  0  0  0  0
    7.5893    3.9630    0.0000 H   0  0  0  0  0  0  0  0  0  0  0  0
   10.0455    9.1611    0.0000 H   0  0  0  0  0  0  0  0  0  0  0  0
    6.1144    4.7857    0.0000 H   0  0  0  0  0  0  0  0  0  0  0  0
    5.4241    4.3872    0.0000 H   0  0  0  0  0  0  0  0  0  0  0  0
    4.8176    4.8776    0.0000 H   0  0  0  0  0  0  0  0  0  0  0  0
    4.4195    5.6588    0.0000 H   0  0  0  0  0  0  0  0  0  0  0  0
    3.6383    5.2607    0.0000 H   0  0  0  0  0  0  0  0  0  0  0  0
    3.3323    5.4831    0.0000 H   0  0  0  0  0  0  0  0  0  0  0  0
    3.4694    6.3491    0.0000 H   0  0  0  0  0  0  0  0  0  0  0  0
    2.6034    6.4862    0.0000 H   0  0  0  0  0  0  0  0  0  0  0  0
    0.0000    4.8969    0.0000 H   0  0  0  0  0  0  0  0  0  0  0  0
    6.8218    0.0000    0.0000 H   0  0  0  0  0  0  0  0  0  0  0  0
  1 58  1  0  0  0  0
  2 26  1  0  0  0  0
  2 28  1  0  0  0  0
  3 24  1  0  0  0  0
  4 27  1  0  0  0  0
  5 27  1  0  0  0  0
  6 27  1  0  0  0  0
  7 31  1  0  0  0  0
  7 34  1  0  0  0  0
  8 16  1  0  0  0  0
  8 17  1  0  0  0  0
  8 19  1  0  0  0  0
  9 28  1  0  0  0  0
  9 29  1  0  0  0  0
  9 30  1  0  0  0  0
 10 11  1  0  0  0  0
 10 28  2  0  0  0  0
 11 29  2  0  0  0  0
 12 32  1  0  0  0  0
 12 34  2  0  0  0  0
 13 14  1  0  0  0  0
 13 15  1  0  0  0  0
 13 16  1  0  0  0  0
 13 18  1  0  0  0  0
 14 15  1  0  0  0  0
 14 17  1  0  0  0  0
 14 35  1  0  0  0  0
 15 36  1  0  0  0  0
 15 37  1  0  0  0  0
 16 38  1  0  0  0  0
 16 39  1  0  0  0  0
 17 40  1  0  0  0  0
 17 41  1  0  0  0  0
 18 20  2  0  0  0  0
 18 21  1  0  0  0  0
 19 22  1  0  0  0  0
 19 42  1  0  0  0  0
 19 43  1  0  0  0  0
 20 23  1  0  0  0  0
 20 44  1  0  0  0  0
 21 24  2  0  0  0  0
 21 45  1  0  0  0  0
 22 26  1  0  0  0  0
 22 46  1  0  0  0  0
 22 47  1  0  0  0  0
 23 25  2  0  0  0  0
 23 27  1  0  0  0  0
 24 25  1  0  0  0  0
 25 48  1  0  0  0  0
 26 49  1  0  0  0  0
 26 50  1  0  0  0  0
 29 31  1  0  0  0  0
 30 51  1  0  0  0  0
 30 52  1  0  0  0  0
 30 53  1  0  0  0  0
 31 32  2  0  0  0  0
 32 33  1  0  0  0  0
 33 54  1  0  0  0  0
 33 55  1  0  0  0  0
 33 56  1  0  0  0  0
 34 57  1  0  0  0  0
M  END
> <PUBCHEM_COMPOUND_CID>
44627358

> <PUBCHEM_COMPOUND_CANONICALIZED>
1

> <PUBCHEM_CACTVS_COMPLEXITY>
704

> <PUBCHEM_CACTVS_HBOND_ACCEPTOR>
10

> <PUBCHEM_CACTVS_HBOND_DONOR>
1

> <PUBCHEM_CACTVS_ROTATABLE_BOND>
7

> <PUBCHEM_CACTVS_SUBSKEYS>
AAADceB7ocBEAAAAAAAAAAAAGAAAAWLFgAA8QAAAAAAAAAAB8AAAHwQIAAAADwzF3x63lJcMFEiqA6Zz9ASS2Ct7YLAV2CG9RJiOKCLk2TGNIChgjALYiAcQgMAPgAACAAAAAAAAAAQAAAAAAAAAAAAAAA==

> <PUBCHEM_IUPAC_OPENEYE_NAME>
5-[5-[3-[1-[3-fluoro-5-(trifluoromethyl)phenyl]-3-azabicyclo[3.1.0]hexan-3-yl]propylsulfanyl]-4-methyl-1,2,4-triazol-3-yl]-4-methyl-oxazole;hydrochloride

> <PUBCHEM_IUPAC_CAS_NAME>
5-[5-[3-[1-[3-fluoro-5-(trifluoromethyl)phenyl]-3-azabicyclo[3.1.0]hexan-3-yl]propylthio]-4-methyl-1,2,4-triazol-3-yl]-4-methyloxazole;hydrochloride

> <PUBCHEM_IUPAC_NAME_MARKUP>
5-[5-[3-[1-[3-fluoro-5-(trifluoromethyl)phenyl]-3-azabicyclo[3.1.0]hexan-3-yl]propylsulfanyl]-4-methyl-1,2,4-triazol-3-yl]-4-methyl-1,3-oxazole;hydrochloride

> <PUBCHEM_IUPAC_NAME>
5-[5-[3-[1-[3-fluoro-5-(trifluoromethyl)phenyl]-3-azabicyclo[3.1.0]hexan-3-yl]propylsulfanyl]-4-methyl-1,2,4-triazol-3-yl]-4-methyl-1,3-oxazole;hydrochloride

> <PUBCHEM_IUPAC_SYSTEMATIC_NAME>
5-[5-[3-[1-[3-fluoranyl-5-(trifluoromethyl)phenyl]-3-azabicyclo[3.1.0]hexan-3-yl]propylsulfanyl]-4-methyl-1,2,4-triazol-3-yl]-4-methyl-1,3-oxazole;hydrochloride

> <PUBCHEM_IUPAC_TRADITIONAL_NAME>
5-[5-[3-[1-[3-fluoro-5-(trifluoromethyl)phenyl]-3-azabicyclo[3.1.0]hexan-3-yl]propylthio]-4-methyl-1,2,4-triazol-3-yl]-4-methyl-oxazole;hydrochloride

> <PUBCHEM_IUPAC_INCHI>
InChI=1S/C22H23F4N5OS.ClH/c1-13-18(32-12-27-13)19-28-29-20(30(19)2)33-5-3-4-31-10-16-9-21(16,11-31)14-6-15(22(24,25)26)8-17(23)7-14;/h6-8,12,16H,3-5,9-11H2,1-2H3;1H

> <PUBCHEM_IUPAC_INCHIKEY>
SRLBIQJDNDNSNU-UHFFFAOYSA-N

> <PUBCHEM_EXACT_MASS>
517.1326219

> <PUBCHEM_MOLECULAR_FORMULA>
C22H24ClF4N5OS

> <PUBCHEM_MOLECULAR_WEIGHT>
518.0

> <PUBCHEM_OPENEYE_CAN_SMILES>
CC1=C(OC=N1)C2=NN=C(N2C)SCCCN3CC4CC4(C3)C5=CC(=CC(=C5)F)C(F)(F)F.Cl

> <PUBCHEM_OPENEYE_ISO_SMILES>
CC1=C(OC=N1)C2=NN=C(N2C)SCCCN3CC4CC4(C3)C5=CC(=CC(=C5)F)C(F)(F)F.Cl

> <PUBCHEM_CACTVS_TPSA>
85.3

> <PUBCHEM_MONOISOTOPIC_WEIGHT>
517.1326219

> <PUBCHEM_TOTAL_CHARGE>
0

> <PUBCHEM_HEAVY_ATOM_COUNT>
34

> <PUBCHEM_ATOM_DEF_STEREO_COUNT>
0

> <PUBCHEM_ATOM_UDEF_STEREO_COUNT>
2

> <PUBCHEM_BOND_DEF_STEREO_COUNT>
0

> <PUBCHEM_BOND_UDEF_STEREO_COUNT>
0

> <PUBCHEM_ISOTOPIC_ATOM_COUNT>
0

> <PUBCHEM_COMPONENT_COUNT>
2

> <PUBCHEM_CACTVS_TAUTO_COUNT>
-1

> <PUBCHEM_COORDINATE_TYPE>
1
5
255

> <PUBCHEM_BONDANNOTATIONS>
10  11  8
10  28  8
11  29  8
12  32  8
12  34  8
13  18  3
14  15  3
18  20  8
18  21  8
20  23  8
21  24  8
23  25  8
24  25  8
31  32  8
7  31  8
7  34  8
9  28  8
9  29  8

$$$$
