138670655
  -OEChem-09292322452D

 72 76  0     1  0  0  0  0  0999 V2000
   18.4547   -2.0827    0.0000 F   0  0  0  0  0  0  0  0  0  0  0  0
   17.5829   -3.5794    0.0000 F   0  0  0  0  0  0  0  0  0  0  0  0
    5.5000    1.0495    0.0000 O   0  0  0  0  0  0  0  0  0  0  0  0
   15.8547   -2.5727    0.0000 O   0  0  0  0  0  0  0  0  0  0  0  0
   11.0000   -1.5485    0.0000 N   0  0  3  0  0  0  0  0  0  0  0  0
    5.5000   -0.6825    0.0000 N   0  0  0  0  0  0  0  0  0  0  0  0
   14.0846   -2.5832    0.0000 N   0  0  0  0  0  0  0  0  0  0  0  0
    3.0000    2.5794    0.0000 N   0  0  0  0  0  0  0  0  0  0  0  0
    2.1953    1.9958    0.0000 N   0  0  0  0  0  0  0  0  0  0  0  0
    8.5000   -0.6825    0.0000 C   0  0  0  0  0  0  0  0  0  0  0  0
    8.0000   -1.5485    0.0000 C   0  0  0  0  0  0  0  0  0  0  0  0
    8.0000    0.1835    0.0000 C   0  0  0  0  0  0  0  0  0  0  0  0
    6.5000   -0.6825    0.0000 C   0  0  0  0  0  0  0  0  0  0  0  0
    7.0000   -1.5485    0.0000 C   0  0  0  0  0  0  0  0  0  0  0  0
    7.0000    0.1835    0.0000 C   0  0  0  0  0  0  0  0  0  0  0  0
    9.5000   -0.6825    0.0000 C   0  0  0  0  0  0  0  0  0  0  0  0
   10.0000   -1.5485    0.0000 C   0  0  0  0  0  0  0  0  0  0  0  0
   11.4339   -0.6476    0.0000 C   0  0  0  0  0  0  0  0  0  0  0  0
   11.4339   -2.4495    0.0000 C   0  0  0  0  0  0  0  0  0  0  0  0
   12.4088   -0.4251    0.0000 C   0  0  0  0  0  0  0  0  0  0  0  0
   12.4088   -2.6720    0.0000 C   0  0  0  0  0  0  0  0  0  0  0  0
    5.0000    0.1835    0.0000 C   0  0  0  0  0  0  0  0  0  0  0  0
   13.1906   -1.0485    0.0000 C   0  0  0  0  0  0  0  0  0  0  0  0
   13.1906   -2.0485    0.0000 C   0  0  0  0  0  0  0  0  0  0  0  0
    4.0000    0.1835    0.0000 C   0  0  0  0  0  0  0  0  0  0  0  0
   14.0846   -0.5139    0.0000 C   0  0  0  0  0  0  0  0  0  0  0  0
    3.5000    1.0495    0.0000 C   0  0  0  0  0  0  0  0  0  0  0  0
   14.9907   -1.0277    0.0000 C   0  0  0  0  0  0  0  0  0  0  0  0
    3.5000   -0.6825    0.0000 C   0  0  0  0  0  0  0  0  0  0  0  0
   14.9907   -2.0694    0.0000 C   0  0  0  0  0  0  0  0  0  0  0  0
    2.5000    1.0495    0.0000 C   0  0  0  0  0  0  0  0  0  0  0  0
    3.8047    1.9958    0.0000 C   0  0  0  0  0  0  0  0  0  0  0  0
    2.5000   -0.6825    0.0000 C   0  0  0  0  0  0  0  0  0  0  0  0
    2.0000    0.1835    0.0000 C   0  0  0  0  0  0  0  0  0  0  0  0
   16.7227   -2.0760    0.0000 C   0  0  0  0  0  0  0  0  0  0  0  0
    3.0000    3.5794    0.0000 C   0  0  0  0  0  0  0  0  0  0  0  0
   17.5868   -2.5794    0.0000 C   0  0  0  0  0  0  0  0  0  0  0  0
    8.8100   -1.2194    0.0000 H   0  0  0  0  0  0  0  0  0  0  0  0
    7.8923   -2.1591    0.0000 H   0  0  0  0  0  0  0  0  0  0  0  0
    8.5826   -1.7606    0.0000 H   0  0  0  0  0  0  0  0  0  0  0  0
    8.5826    0.3956    0.0000 H   0  0  0  0  0  0  0  0  0  0  0  0
    7.8923    0.7941    0.0000 H   0  0  0  0  0  0  0  0  0  0  0  0
    6.1900   -1.2194    0.0000 H   0  0  0  0  0  0  0  0  0  0  0  0
    6.4174   -1.7606    0.0000 H   0  0  0  0  0  0  0  0  0  0  0  0
    7.1077   -2.1591    0.0000 H   0  0  0  0  0  0  0  0  0  0  0  0
    7.1077    0.7941    0.0000 H   0  0  0  0  0  0  0  0  0  0  0  0
    6.4174    0.3956    0.0000 H   0  0  0  0  0  0  0  0  0  0  0  0
   10.0826   -0.4705    0.0000 H   0  0  0  0  0  0  0  0  0  0  0  0
    9.3923   -0.0719    0.0000 H   0  0  0  0  0  0  0  0  0  0  0  0
    9.4174   -1.7606    0.0000 H   0  0  0  0  0  0  0  0  0  0  0  0
   10.1077   -2.1591    0.0000 H   0  0  0  0  0  0  0  0  0  0  0  0
    5.1900   -1.2194    0.0000 H   0  0  0  0  0  0  0  0  0  0  0  0
   11.4339   -0.0276    0.0000 H   0  0  0  0  0  0  0  0  0  0  0  0
   10.8294   -0.5096    0.0000 H   0  0  0  0  0  0  0  0  0  0  0  0
   10.8294   -2.5875    0.0000 H   0  0  0  0  0  0  0  0  0  0  0  0
   11.4339   -3.0695    0.0000 H   0  0  0  0  0  0  0  0  0  0  0  0
   12.8935   -0.0385    0.0000 H   0  0  0  0  0  0  0  0  0  0  0  0
   12.1398    0.1335    0.0000 H   0  0  0  0  0  0  0  0  0  0  0  0
   12.1398   -3.2306    0.0000 H   0  0  0  0  0  0  0  0  0  0  0  0
   12.8935   -3.0586    0.0000 H   0  0  0  0  0  0  0  0  0  0  0  0
   14.0774    0.1061    0.0000 H   0  0  0  0  0  0  0  0  0  0  0  0
   15.5264   -0.7157    0.0000 H   0  0  0  0  0  0  0  0  0  0  0  0
    3.8100   -1.2194    0.0000 H   0  0  0  0  0  0  0  0  0  0  0  0
    4.3940    2.1884    0.0000 H   0  0  0  0  0  0  0  0  0  0  0  0
    2.1900   -1.2194    0.0000 H   0  0  0  0  0  0  0  0  0  0  0  0
    1.3800    0.1835    0.0000 H   0  0  0  0  0  0  0  0  0  0  0  0
   17.1230   -1.6026    0.0000 H   0  0  0  0  0  0  0  0  0  0  0  0
   16.3260   -1.5996    0.0000 H   0  0  0  0  0  0  0  0  0  0  0  0
    3.6200    3.5794    0.0000 H   0  0  0  0  0  0  0  0  0  0  0  0
    3.0000    4.1994    0.0000 H   0  0  0  0  0  0  0  0  0  0  0  0
    2.3800    3.5794    0.0000 H   0  0  0  0  0  0  0  0  0  0  0  0
   18.1225   -2.8914    0.0000 H   0  0  0  0  0  0  0  0  0  0  0  0
  1 37  1  0  0  0  0
  2 37  1  0  0  0  0
  3 22  2  0  0  0  0
  4 30  1  0  0  0  0
  4 35  1  0  0  0  0
  5 17  1  0  0  0  0
  5 18  1  0  0  0  0
  5 19  1  0  0  0  0
  6 13  1  0  0  0  0
  6 22  1  0  0  0  0
  6 52  1  0  0  0  0
  7 24  1  0  0  0  0
  7 30  2  0  0  0  0
  8  9  1  0  0  0  0
  8 32  1  0  0  0  0
  8 36  1  0  0  0  0
  9 31  2  0  0  0  0
 10 11  1  0  0  0  0
 10 12  1  0  0  0  0
 10 16  1  0  0  0  0
 10 38  1  0  0  0  0
 11 14  1  0  0  0  0
 11 39  1  0  0  0  0
 11 40  1  0  0  0  0
 12 15  1  0  0  0  0
 12 41  1  0  0  0  0
 12 42  1  0  0  0  0
 13 14  1  0  0  0  0
 13 15  1  0  0  0  0
 13 43  1  0  0  0  0
 14 44  1  0  0  0  0
 14 45  1  0  0  0  0
 15 46  1  0  0  0  0
 15 47  1  0  0  0  0
 16 17  1  0  0  0  0
 16 48  1  0  0  0  0
 16 49  1  0  0  0  0
 17 50  1  0  0  0  0
 17 51  1  0  0  0  0
 18 20  1  0  0  0  0
 18 53  1  0  0  0  0
 18 54  1  0  0  0  0
 19 21  1  0  0  0  0
 19 55  1  0  0  0  0
 19 56  1  0  0  0  0
 20 23  1  0  0  0  0
 20 57  1  0  0  0  0
 20 58  1  0  0  0  0
 21 24  1  0  0  0  0
 21 59  1  0  0  0  0
 21 60  1  0  0  0  0
 22 25  1  0  0  0  0
 23 24  2  0  0  0  0
 23 26  1  0  0  0  0
 25 27  1  0  0  0  0
 25 29  2  0  0  0  0
 26 28  2  0  0  0  0
 26 61  1  0  0  0  0
 27 31  1  0  0  0  0
 27 32  2  0  0  0  0
 28 30  1  0  0  0  0
 28 62  1  0  0  0  0
 29 33  1  0  0  0  0
 29 63  1  0  0  0  0
 31 34  1  0  0  0  0
 32 64  1  0  0  0  0
 33 34  2  0  0  0  0
 33 65  1  0  0  0  0
 34 66  1  0  0  0  0
 35 37  1  0  0  0  0
 35 67  1  0  0  0  0
 35 68  1  0  0  0  0
 36 69  1  0  0  0  0
 36 70  1  0  0  0  0
 36 71  1  0  0  0  0
 37 72  1  0  0  0  0
M  END
> <PUBCHEM_COMPOUND_CID>
138670655

> <PUBCHEM_COMPOUND_CANONICALIZED>
1

> <PUBCHEM_CACTVS_COMPLEXITY>
737

> <PUBCHEM_CACTVS_HBOND_ACCEPTOR>
7

> <PUBCHEM_CACTVS_HBOND_DONOR>
1

> <PUBCHEM_CACTVS_ROTATABLE_BOND>
8

> <PUBCHEM_CACTVS_SUBSKEYS>
AAADcfB7sYAAAAAAAAAAAAAAAAAAAWAAAAA8YIAABYAAAFgB/AAAHwAYAAAADSjhnhY+xPPIFACqAzV3VACSjCA1oiAY2KE+bNgMJvLE9duOvSjk3hHI6Yec2KGOgAAAQAASAAAQAACAACQAAAAAAAAAAA==

> <PUBCHEM_IUPAC_OPENEYE_NAME>
N-[4-[2-[2-(2,2-difluoroethoxy)-5,6,8,9-tetrahydropyrido[2,3-d]azepin-7-yl]ethyl]cyclohexyl]-2-methyl-indazole-4-carboxamide

> <PUBCHEM_IUPAC_CAS_NAME>
N-[4-[2-[2-(2,2-difluoroethoxy)-5,6,8,9-tetrahydropyrido[2,3-d]azepin-7-yl]ethyl]cyclohexyl]-2-methyl-4-indazolecarboxamide

> <PUBCHEM_IUPAC_NAME_MARKUP>
<I>N</I>-[4-[2-[2-(2,2-difluoroethoxy)-5,6,8,9-tetrahydropyrido[2,3-d]azepin-7-yl]ethyl]cyclohexyl]-2-methylindazole-4-carboxamide

> <PUBCHEM_IUPAC_NAME>
N-[4-[2-[2-(2,2-difluoroethoxy)-5,6,8,9-tetrahydropyrido[2,3-d]azepin-7-yl]ethyl]cyclohexyl]-2-methylindazole-4-carboxamide

> <PUBCHEM_IUPAC_SYSTEMATIC_NAME>
N-[4-[2-[2-[2,2-bis(fluoranyl)ethoxy]-5,6,8,9-tetrahydropyrido[2,3-d]azepin-7-yl]ethyl]cyclohexyl]-2-methyl-indazole-4-carboxamide

> <PUBCHEM_IUPAC_TRADITIONAL_NAME>
N-[4-[2-[2-(2,2-difluoroethoxy)-5,6,8,9-tetrahydropyrid[2,3-d]azepin-7-yl]ethyl]cyclohexyl]-2-methyl-indazole-4-carboxamide

> <PUBCHEM_IUPAC_INCHI>
InChI=1S/C28H35F2N5O2/c1-34-17-23-22(3-2-4-25(23)33-34)28(36)31-21-8-5-19(6-9-21)11-14-35-15-12-20-7-10-27(37-18-26(29)30)32-24(20)13-16-35/h2-4,7,10,17,19,21,26H,5-6,8-9,11-16,18H2,1H3,(H,31,36)

> <PUBCHEM_IUPAC_INCHIKEY>
FHRMNCCBNRHQPN-UHFFFAOYSA-N

> <PUBCHEM_XLOGP3_AA>
4.9

> <PUBCHEM_EXACT_MASS>
511.27588170

> <PUBCHEM_MOLECULAR_FORMULA>
C28H35F2N5O2

> <PUBCHEM_MOLECULAR_WEIGHT>
511.6

> <PUBCHEM_OPENEYE_CAN_SMILES>
CN1C=C2C(=N1)C=CC=C2C(=O)NC3CCC(CC3)CCN4CCC5=C(CC4)N=C(C=C5)OCC(F)F

> <PUBCHEM_OPENEYE_ISO_SMILES>
CN1C=C2C(=N1)C=CC=C2C(=O)NC3CCC(CC3)CCN4CCC5=C(CC4)N=C(C=C5)OCC(F)F

> <PUBCHEM_CACTVS_TPSA>
72.3

> <PUBCHEM_MONOISOTOPIC_WEIGHT>
511.27588170

> <PUBCHEM_TOTAL_CHARGE>
0

> <PUBCHEM_HEAVY_ATOM_COUNT>
37

> <PUBCHEM_ATOM_DEF_STEREO_COUNT>
0

> <PUBCHEM_ATOM_UDEF_STEREO_COUNT>
0

> <PUBCHEM_BOND_DEF_STEREO_COUNT>
0

> <PUBCHEM_BOND_UDEF_STEREO_COUNT>
0

> <PUBCHEM_ISOTOPIC_ATOM_COUNT>
0

> <PUBCHEM_COMPONENT_COUNT>
1

> <PUBCHEM_CACTVS_TAUTO_COUNT>
-1

> <PUBCHEM_COORDINATE_TYPE>
1
5
255

> <PUBCHEM_BONDANNOTATIONS>
23  24  8
23  26  8
25  27  8
25  29  8
26  28  8
27  31  8
27  32  8
28  30  8
29  33  8
31  34  8
33  34  8
7  24  8
7  30  8
8  32  8
8  9  8
9  31  8

$$$$
