44454219
  -OEChem-09292322492D

 69 74  0     1  0  0  0  0  0999 V2000
    6.7062    0.8739    0.0000 S   0  0  0  0  0  0  0  0  0  0  0  0
    4.4887   -6.3085    0.0000 O   0  0  0  0  0  0  0  0  0  0  0  0
    6.2062   -1.7242    0.0000 N   0  0  3  0  0  0  0  0  0  0  0  0
    3.0949   -5.5037    0.0000 N   0  0  0  0  0  0  0  0  0  0  0  0
    5.2117    1.8444    0.0000 N   0  0  0  0  0  0  0  0  0  0  0  0
    6.6130    2.6535    0.0000 N   0  0  0  0  0  0  0  0  0  0  0  0
    5.8698    3.3226    0.0000 N   0  0  0  0  0  0  0  0  0  0  0  0
    2.9473    5.6647    0.0000 N   0  0  0  0  0  0  0  0  0  0  0  0
    6.7598   -2.5338    0.0000 C   0  0  0  0  0  0  0  0  0  0  0  0
    6.4745   -3.4722    0.0000 C   0  0  0  0  0  0  0  0  0  0  0  0
    5.5640   -3.8366    0.0000 C   0  0  0  0  0  0  0  0  0  0  0  0
    5.2283   -1.6496    0.0000 C   0  0  0  0  0  0  0  0  0  0  0  0
    4.5583   -2.3658    0.0000 C   0  0  0  0  0  0  0  0  0  0  0  0
    4.6979   -3.3366    0.0000 C   0  0  0  0  0  0  0  0  0  0  0  0
    5.5640   -4.8366    0.0000 C   0  0  0  0  0  0  0  0  0  0  0  0
    6.7062   -0.8582    0.0000 C   0  0  0  0  0  0  0  0  0  0  0  0
    3.8319   -3.8366    0.0000 C   0  0  0  0  0  0  0  0  0  0  0  0
    4.6979   -5.3366    0.0000 C   0  0  0  0  0  0  0  0  0  0  0  0
    3.8319   -4.8366    0.0000 C   0  0  0  0  0  0  0  0  0  0  0  0
    6.2062    0.0079    0.0000 C   0  0  0  0  0  0  0  0  0  0  0  0
    6.4300   -5.3366    0.0000 C   0  0  0  0  0  0  0  0  0  0  0  0
    3.5000   -6.4115    0.0000 C   0  0  0  0  0  0  0  0  0  0  0  0
    3.0000   -7.2776    0.0000 C   0  0  0  0  0  0  0  0  0  0  0  0
    6.2062    1.7399    0.0000 C   0  0  0  0  0  0  0  0  0  0  0  0
    2.0000   -7.2776    0.0000 C   0  0  0  0  0  0  0  0  0  0  0  0
    5.0038    2.8226    0.0000 C   0  0  0  0  0  0  0  0  0  0  0  0
    4.0902    3.2293    0.0000 C   0  0  0  0  0  0  0  0  0  0  0  0
    3.9857    4.2238    0.0000 C   0  0  0  0  0  0  0  0  0  0  0  0
    4.5426    1.1013    0.0000 C   0  0  0  0  0  0  0  0  0  0  0  0
    3.0722    4.6306    0.0000 C   0  0  0  0  0  0  0  0  0  0  0  0
    3.2812    2.6415    0.0000 C   0  0  0  0  0  0  0  0  0  0  0  0
    4.8378    4.8230    0.0000 C   0  0  0  0  0  0  0  0  0  0  0  0
    2.2632    4.0428    0.0000 C   0  0  0  0  0  0  0  0  0  0  0  0
    2.3677    3.0483    0.0000 C   0  0  0  0  0  0  0  0  0  0  0  0
    4.7369    5.8598    0.0000 C   0  0  0  0  0  0  0  0  0  0  0  0
    3.7853    6.2834    0.0000 C   0  0  0  0  0  0  0  0  0  0  0  0
    3.6769    7.2776    0.0000 C   0  0  0  0  0  0  0  0  0  0  0  0
    7.2977   -2.8421    0.0000 H   0  0  0  0  0  0  0  0  0  0  0  0
    7.1805   -2.0784    0.0000 H   0  0  0  0  0  0  0  0  0  0  0  0
    6.5705   -4.0847    0.0000 H   0  0  0  0  0  0  0  0  0  0  0  0
    7.0930   -3.5155    0.0000 H   0  0  0  0  0  0  0  0  0  0  0  0
    5.4124   -1.0575    0.0000 H   0  0  0  0  0  0  0  0  0  0  0  0
    4.6923   -1.3379    0.0000 H   0  0  0  0  0  0  0  0  0  0  0  0
    4.2116   -1.8519    0.0000 H   0  0  0  0  0  0  0  0  0  0  0  0
    3.9798   -2.5890    0.0000 H   0  0  0  0  0  0  0  0  0  0  0  0
    7.1812   -1.2567    0.0000 H   0  0  0  0  0  0  0  0  0  0  0  0
    7.1812   -0.4596    0.0000 H   0  0  0  0  0  0  0  0  0  0  0  0
    3.2950   -3.5266    0.0000 H   0  0  0  0  0  0  0  0  0  0  0  0
    5.7313    0.4064    0.0000 H   0  0  0  0  0  0  0  0  0  0  0  0
    5.7313   -0.3907    0.0000 H   0  0  0  0  0  0  0  0  0  0  0  0
    6.1200   -5.8736    0.0000 H   0  0  0  0  0  0  0  0  0  0  0  0
    6.9669   -5.6466    0.0000 H   0  0  0  0  0  0  0  0  0  0  0  0
    6.7400   -4.7997    0.0000 H   0  0  0  0  0  0  0  0  0  0  0  0
    2.8923   -7.8881    0.0000 H   0  0  0  0  0  0  0  0  0  0  0  0
    3.5826   -7.4896    0.0000 H   0  0  0  0  0  0  0  0  0  0  0  0
    2.0000   -6.6576    0.0000 H   0  0  0  0  0  0  0  0  0  0  0  0
    1.3800   -7.2776    0.0000 H   0  0  0  0  0  0  0  0  0  0  0  0
    2.0000   -7.8976    0.0000 H   0  0  0  0  0  0  0  0  0  0  0  0
    4.0818    1.5162    0.0000 H   0  0  0  0  0  0  0  0  0  0  0  0
    4.1277    0.6405    0.0000 H   0  0  0  0  0  0  0  0  0  0  0  0
    5.0033    0.6864    0.0000 H   0  0  0  0  0  0  0  0  0  0  0  0
    3.3460    2.0249    0.0000 H   0  0  0  0  0  0  0  0  0  0  0  0
    5.4012    4.5643    0.0000 H   0  0  0  0  0  0  0  0  0  0  0  0
    1.6968    4.2950    0.0000 H   0  0  0  0  0  0  0  0  0  0  0  0
    1.8661    2.6838    0.0000 H   0  0  0  0  0  0  0  0  0  0  0  0
    5.2399    6.2223    0.0000 H   0  0  0  0  0  0  0  0  0  0  0  0
    4.2933    7.3447    0.0000 H   0  0  0  0  0  0  0  0  0  0  0  0
    3.6098    7.8939    0.0000 H   0  0  0  0  0  0  0  0  0  0  0  0
    3.0606    7.2104    0.0000 H   0  0  0  0  0  0  0  0  0  0  0  0
  1 20  1  0  0  0  0
  1 24  1  0  0  0  0
  2 18  1  0  0  0  0
  2 22  1  0  0  0  0
  3  9  1  0  0  0  0
  3 12  1  0  0  0  0
  3 16  1  0  0  0  0
  4 19  1  0  0  0  0
  4 22  2  0  0  0  0
  5 24  1  0  0  0  0
  5 26  1  0  0  0  0
  5 29  1  0  0  0  0
  6  7  1  0  0  0  0
  6 24  2  0  0  0  0
  7 26  2  0  0  0  0
  8 30  1  0  0  0  0
  8 36  2  0  0  0  0
  9 10  1  0  0  0  0
  9 38  1  0  0  0  0
  9 39  1  0  0  0  0
 10 11  1  0  0  0  0
 10 40  1  0  0  0  0
 10 41  1  0  0  0  0
 11 14  1  0  0  0  0
 11 15  2  0  0  0  0
 12 13  1  0  0  0  0
 12 42  1  0  0  0  0
 12 43  1  0  0  0  0
 13 14  1  0  0  0  0
 13 44  1  0  0  0  0
 13 45  1  0  0  0  0
 14 17  2  0  0  0  0
 15 18  1  0  0  0  0
 15 21  1  0  0  0  0
 16 20  1  0  0  0  0
 16 46  1  0  0  0  0
 16 47  1  0  0  0  0
 17 19  1  0  0  0  0
 17 48  1  0  0  0  0
 18 19  2  0  0  0  0
 20 49  1  0  0  0  0
 20 50  1  0  0  0  0
 21 51  1  0  0  0  0
 21 52  1  0  0  0  0
 21 53  1  0  0  0  0
 22 23  1  0  0  0  0
 23 25  1  0  0  0  0
 23 54  1  0  0  0  0
 23 55  1  0  0  0  0
 25 56  1  0  0  0  0
 25 57  1  0  0  0  0
 25 58  1  0  0  0  0
 26 27  1  0  0  0  0
 27 28  2  0  0  0  0
 27 31  1  0  0  0  0
 28 30  1  0  0  0  0
 28 32  1  0  0  0  0
 29 59  1  0  0  0  0
 29 60  1  0  0  0  0
 29 61  1  0  0  0  0
 30 33  2  0  0  0  0
 31 34  2  0  0  0  0
 31 62  1  0  0  0  0
 32 35  2  0  0  0  0
 32 63  1  0  0  0  0
 33 34  1  0  0  0  0
 33 64  1  0  0  0  0
 34 65  1  0  0  0  0
 35 36  1  0  0  0  0
 35 66  1  0  0  0  0
 36 37  1  0  0  0  0
 37 67  1  0  0  0  0
 37 68  1  0  0  0  0
 37 69  1  0  0  0  0
M  END
> <PUBCHEM_COMPOUND_CID>
44454219

> <PUBCHEM_COMPOUND_CANONICALIZED>
1

> <PUBCHEM_CACTVS_COMPLEXITY>
760

> <PUBCHEM_CACTVS_HBOND_ACCEPTOR>
7

> <PUBCHEM_CACTVS_HBOND_DONOR>
0

> <PUBCHEM_CACTVS_ROTATABLE_BOND>
6

> <PUBCHEM_CACTVS_SUBSKEYS>
AAADcfB7oABAAAAAAAAAAAAAAAAAAWLAAAA8YIAABYAAAFix/gAAHgQIAAAADAzF3wSz1vcMFEiqA6dydASS2CtvYrAd2CG9bNiOLvLEvbuPOSjkzBPY6YeY2fKOqAADQAAaEABQAAaAADQgAAAAAAAAAA==

> <PUBCHEM_IUPAC_OPENEYE_NAME>
2-ethyl-10-methyl-7-[2-[[4-methyl-5-(2-methyl-5-quinolyl)-1,2,4-triazol-3-yl]sulfanyl]ethyl]-5,6,8,9-tetrahydrooxazolo[4,5-h][3]benzazepine

> <PUBCHEM_IUPAC_CAS_NAME>
2-ethyl-10-methyl-7-[2-[[4-methyl-5-(2-methyl-5-quinolinyl)-1,2,4-triazol-3-yl]thio]ethyl]-5,6,8,9-tetrahydrooxazolo[4,5-h][3]benzazepine

> <PUBCHEM_IUPAC_NAME_MARKUP>
2-ethyl-10-methyl-7-[2-[[4-methyl-5-(2-methylquinolin-5-yl)-1,2,4-triazol-3-yl]sulfanyl]ethyl]-5,6,8,9-tetrahydro-[1,3]oxazolo[4,5-h][3]benzazepine

> <PUBCHEM_IUPAC_NAME>
2-ethyl-10-methyl-7-[2-[[4-methyl-5-(2-methylquinolin-5-yl)-1,2,4-triazol-3-yl]sulfanyl]ethyl]-5,6,8,9-tetrahydro-[1,3]oxazolo[4,5-h][3]benzazepine

> <PUBCHEM_IUPAC_SYSTEMATIC_NAME>
2-ethyl-10-methyl-7-[2-[[4-methyl-5-(2-methylquinolin-5-yl)-1,2,4-triazol-3-yl]sulfanyl]ethyl]-5,6,8,9-tetrahydro-[1,3]oxazolo[4,5-h][3]benzazepine

> <PUBCHEM_IUPAC_TRADITIONAL_NAME>
2-ethyl-10-methyl-7-[2-[[4-methyl-5-(2-methyl-5-quinolyl)-1,2,4-triazol-3-yl]thio]ethyl]-5,6,8,9-tetrahydrooxazolo[4,5-h][3]benzazepine

> <PUBCHEM_IUPAC_INCHI>
InChI=1S/C29H32N6OS/c1-5-26-31-25-17-20-11-13-35(14-12-21(20)19(3)27(25)36-26)15-16-37-29-33-32-28(34(29)4)23-7-6-8-24-22(23)10-9-18(2)30-24/h6-10,17H,5,11-16H2,1-4H3

> <PUBCHEM_IUPAC_INCHIKEY>
HGTGAIQIJPCZMF-UHFFFAOYSA-N

> <PUBCHEM_XLOGP3_AA>
5.7

> <PUBCHEM_EXACT_MASS>
512.23583084

> <PUBCHEM_MOLECULAR_FORMULA>
C29H32N6OS

> <PUBCHEM_MOLECULAR_WEIGHT>
512.7

> <PUBCHEM_OPENEYE_CAN_SMILES>
CCC1=NC2=C(O1)C(=C3CCN(CCC3=C2)CCSC4=NN=C(N4C)C5=C6C=CC(=NC6=CC=C5)C)C

> <PUBCHEM_OPENEYE_ISO_SMILES>
CCC1=NC2=C(O1)C(=C3CCN(CCC3=C2)CCSC4=NN=C(N4C)C5=C6C=CC(=NC6=CC=C5)C)C

> <PUBCHEM_CACTVS_TPSA>
98.2

> <PUBCHEM_MONOISOTOPIC_WEIGHT>
512.23583084

> <PUBCHEM_TOTAL_CHARGE>
0

> <PUBCHEM_HEAVY_ATOM_COUNT>
37

> <PUBCHEM_ATOM_DEF_STEREO_COUNT>
0

> <PUBCHEM_ATOM_UDEF_STEREO_COUNT>
0

> <PUBCHEM_BOND_DEF_STEREO_COUNT>
0

> <PUBCHEM_BOND_UDEF_STEREO_COUNT>
0

> <PUBCHEM_ISOTOPIC_ATOM_COUNT>
0

> <PUBCHEM_COMPONENT_COUNT>
1

> <PUBCHEM_CACTVS_TAUTO_COUNT>
-1

> <PUBCHEM_COORDINATE_TYPE>
1
5
255

> <PUBCHEM_BONDANNOTATIONS>
11  14  8
11  15  8
14  17  8
15  18  8
17  19  8
18  19  8
2  18  8
2  22  8
27  28  8
27  31  8
28  30  8
28  32  8
30  33  8
31  34  8
32  35  8
33  34  8
35  36  8
4  19  8
4  22  8
5  24  8
5  26  8
6  24  8
6  7  8
7  26  8
8  30  8
8  36  8

$$$$
