44443903
  -OEChem-09292322032D

 33 34  0     1  0  0  0  0  0999 V2000
    5.4641    0.8450    0.0000 O   0  0  0  0  0  0  0  0  0  0  0  0
    2.8660    3.3450    0.0000 O   0  0  0  0  0  0  0  0  0  0  0  0
    5.4641   -1.1550    0.0000 N   0  0  3  0  0  0  0  0  0  0  0  0
    4.5981    0.3450    0.0000 C   0  0  3  0  0  0  0  0  0  0  0  0
    4.5981   -0.6550    0.0000 C   0  0  0  0  0  0  0  0  0  0  0  0
    6.3301   -0.6550    0.0000 C   0  0  0  0  0  0  0  0  0  0  0  0
    6.3301    0.3450    0.0000 C   0  0  0  0  0  0  0  0  0  0  0  0
    3.7320    0.8450    0.0000 C   0  0  0  0  0  0  0  0  0  0  0  0
    5.4641   -2.1550    0.0000 C   0  0  0  0  0  0  0  0  0  0  0  0
    3.7320    1.8450    0.0000 C   0  0  0  0  0  0  0  0  0  0  0  0
    2.8660    0.3450    0.0000 C   0  0  0  0  0  0  0  0  0  0  0  0
    6.3301   -2.6550    0.0000 C   0  0  0  0  0  0  0  0  0  0  0  0
    2.8660    2.3450    0.0000 C   0  0  0  0  0  0  0  0  0  0  0  0
    2.0000    0.8450    0.0000 C   0  0  0  0  0  0  0  0  0  0  0  0
    2.0000    1.8450    0.0000 C   0  0  0  0  0  0  0  0  0  0  0  0
    6.3301   -3.6550    0.0000 C   0  0  0  0  0  0  0  0  0  0  0  0
    4.5981    0.9650    0.0000 H   0  0  0  0  0  0  0  0  0  0  0  0
    3.9875   -0.5473    0.0000 H   0  0  0  0  0  0  0  0  0  0  0  0
    4.3860   -1.2376    0.0000 H   0  0  0  0  0  0  0  0  0  0  0  0
    6.5422   -1.2376    0.0000 H   0  0  0  0  0  0  0  0  0  0  0  0
    6.9407   -0.5473    0.0000 H   0  0  0  0  0  0  0  0  0  0  0  0
    6.9407    0.2373    0.0000 H   0  0  0  0  0  0  0  0  0  0  0  0
    6.5422    0.9276    0.0000 H   0  0  0  0  0  0  0  0  0  0  0  0
    4.8535   -2.0473    0.0000 H   0  0  0  0  0  0  0  0  0  0  0  0
    5.2520   -2.7376    0.0000 H   0  0  0  0  0  0  0  0  0  0  0  0
    4.2690    2.1550    0.0000 H   0  0  0  0  0  0  0  0  0  0  0  0
    2.8660   -0.2750    0.0000 H   0  0  0  0  0  0  0  0  0  0  0  0
    6.8671   -2.3450    0.0000 H   0  0  0  0  0  0  0  0  0  0  0  0
    1.4631    0.5350    0.0000 H   0  0  0  0  0  0  0  0  0  0  0  0
    1.4631    2.1550    0.0000 H   0  0  0  0  0  0  0  0  0  0  0  0
    5.7932   -3.9650    0.0000 H   0  0  0  0  0  0  0  0  0  0  0  0
    6.8671   -3.9650    0.0000 H   0  0  0  0  0  0  0  0  0  0  0  0
    2.3291    3.6550    0.0000 H   0  0  0  0  0  0  0  0  0  0  0  0
  1  4  1  0  0  0  0
  1  7  1  0  0  0  0
  2 13  1  0  0  0  0
  2 33  1  0  0  0  0
  3  5  1  0  0  0  0
  3  6  1  0  0  0  0
  3  9  1  0  0  0  0
  4  5  1  0  0  0  0
  4  8  1  0  0  0  0
  4 17  1  0  0  0  0
  5 18  1  0  0  0  0
  5 19  1  0  0  0  0
  6  7  1  0  0  0  0
  6 20  1  0  0  0  0
  6 21  1  0  0  0  0
  7 22  1  0  0  0  0
  7 23  1  0  0  0  0
  8 10  2  0  0  0  0
  8 11  1  0  0  0  0
  9 12  1  0  0  0  0
  9 24  1  0  0  0  0
  9 25  1  0  0  0  0
 10 13  1  0  0  0  0
 10 26  1  0  0  0  0
 11 14  2  0  0  0  0
 11 27  1  0  0  0  0
 12 16  2  0  0  0  0
 12 28  1  0  0  0  0
 13 15  2  0  0  0  0
 14 15  1  0  0  0  0
 14 29  1  0  0  0  0
 15 30  1  0  0  0  0
 16 31  1  0  0  0  0
 16 32  1  0  0  0  0
M  END
> <PUBCHEM_COMPOUND_CID>
44443903

> <PUBCHEM_COMPOUND_CANONICALIZED>
1

> <PUBCHEM_CACTVS_COMPLEXITY>
232

> <PUBCHEM_CACTVS_HBOND_ACCEPTOR>
3

> <PUBCHEM_CACTVS_HBOND_DONOR>
1

> <PUBCHEM_CACTVS_ROTATABLE_BOND>
3

> <PUBCHEM_CACTVS_SUBSKEYS>
AAADceByMAAAAAAAAAAAAAAAAAAAAAAAAAA8QAAAAAAAAAABAAAAHgAACAAADBThmAYwBoMABgCAAiBCAACCAAAgIAAIiAAOCIgKJiKCsRuHcAAkwBGYuAfQ0LIOAAABAAAAAAAAAAIAAAAAAAAAAAAAAA==

> <PUBCHEM_IUPAC_OPENEYE_NAME>
3-(4-allylmorpholin-2-yl)phenol

> <PUBCHEM_IUPAC_CAS_NAME>
3-(4-prop-2-enyl-2-morpholinyl)phenol

> <PUBCHEM_IUPAC_NAME_MARKUP>
3-(4-prop-2-enylmorpholin-2-yl)phenol

> <PUBCHEM_IUPAC_NAME>
3-(4-prop-2-enylmorpholin-2-yl)phenol

> <PUBCHEM_IUPAC_SYSTEMATIC_NAME>
3-(4-prop-2-enylmorpholin-2-yl)phenol

> <PUBCHEM_IUPAC_TRADITIONAL_NAME>
3-(4-allylmorpholin-2-yl)phenol

> <PUBCHEM_IUPAC_INCHI>
InChI=1S/C13H17NO2/c1-2-6-14-7-8-16-13(10-14)11-4-3-5-12(15)9-11/h2-5,9,13,15H,1,6-8,10H2

> <PUBCHEM_IUPAC_INCHIKEY>
ABXIURKZPIWOPL-UHFFFAOYSA-N

> <PUBCHEM_XLOGP3>
2.1

> <PUBCHEM_EXACT_MASS>
219.125928785

> <PUBCHEM_MOLECULAR_FORMULA>
C13H17NO2

> <PUBCHEM_MOLECULAR_WEIGHT>
219.28

> <PUBCHEM_OPENEYE_CAN_SMILES>
C=CCN1CCOC(C1)C2=CC(=CC=C2)O

> <PUBCHEM_OPENEYE_ISO_SMILES>
C=CCN1CCOC(C1)C2=CC(=CC=C2)O

> <PUBCHEM_CACTVS_TPSA>
32.7

> <PUBCHEM_MONOISOTOPIC_WEIGHT>
219.125928785

> <PUBCHEM_TOTAL_CHARGE>
0

> <PUBCHEM_HEAVY_ATOM_COUNT>
16

> <PUBCHEM_ATOM_DEF_STEREO_COUNT>
0

> <PUBCHEM_ATOM_UDEF_STEREO_COUNT>
1

> <PUBCHEM_BOND_DEF_STEREO_COUNT>
0

> <PUBCHEM_BOND_UDEF_STEREO_COUNT>
0

> <PUBCHEM_ISOTOPIC_ATOM_COUNT>
0

> <PUBCHEM_COMPONENT_COUNT>
1

> <PUBCHEM_CACTVS_TAUTO_COUNT>
-1

> <PUBCHEM_COORDINATE_TYPE>
1
5
255

> <PUBCHEM_BONDANNOTATIONS>
10  13  8
11  14  8
13  15  8
14  15  8
4  8  3
8  10  8
8  11  8

$$$$
