90666902
  -OEChem-09292322352D

 59 64  0     1  0  0  0  0  0999 V2000
   12.8517    0.2058    0.0000 S   0  0  0  0  0  0  0  0  0  0  0  0
    2.0000   -0.6227    0.0000 F   0  0  0  0  0  0  0  0  0  0  0  0
    4.7684    1.5990    0.0000 O   0  0  0  0  0  0  0  0  0  0  0  0
   11.0395    1.4010    0.0000 O   0  0  0  0  0  0  0  0  0  0  0  0
    8.4414   -1.0990    0.0000 N   0  0  0  0  0  0  0  0  0  0  0  0
   14.4353   -0.5990    0.0000 N   0  0  0  0  0  0  0  0  0  0  0  0
   12.8517   -1.4037    0.0000 N   0  0  0  0  0  0  0  0  0  0  0  0
    5.7402    1.3898    0.0000 N   0  0  0  0  0  0  0  0  0  0  0  0
   10.1734   -1.0990    0.0000 C   0  0  3  0  0  0  0  0  0  0  0  0
    6.7093   -0.0990    0.0000 C   0  0  0  0  0  0  0  0  0  0  0  0
    9.3074   -1.5990    0.0000 C   0  0  0  0  0  0  0  0  0  0  0  0
    8.4414   -0.0990    0.0000 C   0  0  0  0  0  0  0  0  0  0  0  0
    7.5754   -1.5990    0.0000 C   0  0  0  0  0  0  0  0  0  0  0  0
    7.5754    0.4010    0.0000 C   0  0  0  0  0  0  0  0  0  0  0  0
    6.7093   -1.0990    0.0000 C   0  0  0  0  0  0  0  0  0  0  0  0
   11.0395   -1.5990    0.0000 C   0  0  0  0  0  0  0  0  0  0  0  0
   10.1734   -0.0990    0.0000 C   0  0  0  0  0  0  0  0  0  0  0  0
    5.8433    0.4010    0.0000 C   0  0  0  0  0  0  0  0  0  0  0  0
   11.9055   -1.0990    0.0000 C   0  0  0  0  0  0  0  0  0  0  0  0
   11.9055   -0.0990    0.0000 C   0  0  0  0  0  0  0  0  0  0  0  0
   11.0395    0.4010    0.0000 C   0  0  0  0  0  0  0  0  0  0  0  0
   15.0231   -1.4080    0.0000 C   0  0  0  0  0  0  0  0  0  0  0  0
   15.0231    0.2101    0.0000 C   0  0  0  0  0  0  0  0  0  0  0  0
   13.4353   -0.5990    0.0000 C   0  0  0  0  0  0  0  0  0  0  0  0
   15.9742   -1.0990    0.0000 C   0  0  0  0  0  0  0  0  0  0  0  0
   15.9742   -0.0990    0.0000 C   0  0  0  0  0  0  0  0  0  0  0  0
    4.9355   -0.0041    0.0000 C   0  0  0  0  0  0  0  0  0  0  0  0
    4.2677    0.7402    0.0000 C   0  0  0  0  0  0  0  0  0  0  0  0
    4.6249   -0.9546    0.0000 C   0  0  0  0  0  0  0  0  0  0  0  0
    3.2892    0.5340    0.0000 C   0  0  0  0  0  0  0  0  0  0  0  0
    3.6464   -1.1608    0.0000 C   0  0  0  0  0  0  0  0  0  0  0  0
    2.9785   -0.4165    0.0000 C   0  0  0  0  0  0  0  0  0  0  0  0
   10.1734   -1.7190    0.0000 H   0  0  0  0  0  0  0  0  0  0  0  0
    6.7093    0.5210    0.0000 H   0  0  0  0  0  0  0  0  0  0  0  0
    8.9089   -2.0739    0.0000 H   0  0  0  0  0  0  0  0  0  0  0  0
    9.7059   -2.0739    0.0000 H   0  0  0  0  0  0  0  0  0  0  0  0
    9.0520   -0.2066    0.0000 H   0  0  0  0  0  0  0  0  0  0  0  0
    8.6534    0.4836    0.0000 H   0  0  0  0  0  0  0  0  0  0  0  0
    7.1768   -2.0739    0.0000 H   0  0  0  0  0  0  0  0  0  0  0  0
    7.9739   -2.0739    0.0000 H   0  0  0  0  0  0  0  0  0  0  0  0
    7.9739    0.8760    0.0000 H   0  0  0  0  0  0  0  0  0  0  0  0
    7.1768    0.8760    0.0000 H   0  0  0  0  0  0  0  0  0  0  0  0
    6.0988   -0.9913    0.0000 H   0  0  0  0  0  0  0  0  0  0  0  0
    6.4973   -1.6816    0.0000 H   0  0  0  0  0  0  0  0  0  0  0  0
   10.6409   -2.0739    0.0000 H   0  0  0  0  0  0  0  0  0  0  0  0
   11.4380   -2.0739    0.0000 H   0  0  0  0  0  0  0  0  0  0  0  0
    9.9614    0.4836    0.0000 H   0  0  0  0  0  0  0  0  0  0  0  0
    9.5628   -0.2066    0.0000 H   0  0  0  0  0  0  0  0  0  0  0  0
   14.4862   -1.7180    0.0000 H   0  0  0  0  0  0  0  0  0  0  0  0
   15.2753   -1.9744    0.0000 H   0  0  0  0  0  0  0  0  0  0  0  0
   15.2753    0.7765    0.0000 H   0  0  0  0  0  0  0  0  0  0  0  0
   14.4862    0.5201    0.0000 H   0  0  0  0  0  0  0  0  0  0  0  0
   16.1031   -1.7054    0.0000 H   0  0  0  0  0  0  0  0  0  0  0  0
   16.5908   -1.0342    0.0000 H   0  0  0  0  0  0  0  0  0  0  0  0
   16.5908   -0.1638    0.0000 H   0  0  0  0  0  0  0  0  0  0  0  0
   16.1031    0.5075    0.0000 H   0  0  0  0  0  0  0  0  0  0  0  0
    5.0389   -1.4161    0.0000 H   0  0  0  0  0  0  0  0  0  0  0  0
    2.8751    0.9955    0.0000 H   0  0  0  0  0  0  0  0  0  0  0  0
    3.4537   -1.7501    0.0000 H   0  0  0  0  0  0  0  0  0  0  0  0
  1 20  1  0  0  0  0
  1 24  1  0  0  0  0
  2 32  1  0  0  0  0
  3  8  1  0  0  0  0
  3 28  1  0  0  0  0
  4 21  2  0  0  0  0
  5 11  1  0  0  0  0
  5 12  1  0  0  0  0
  5 13  1  0  0  0  0
  6 22  1  0  0  0  0
  6 23  1  0  0  0  0
  6 24  1  0  0  0  0
  7 19  1  0  0  0  0
  7 24  2  0  0  0  0
  8 18  2  0  0  0  0
  9 11  1  0  0  0  0
  9 16  1  0  0  0  0
  9 17  1  0  0  0  0
  9 33  1  0  0  0  0
 10 14  1  0  0  0  0
 10 15  1  0  0  0  0
 10 18  1  0  0  0  0
 10 34  1  0  0  0  0
 11 35  1  0  0  0  0
 11 36  1  0  0  0  0
 12 14  1  0  0  0  0
 12 37  1  0  0  0  0
 12 38  1  0  0  0  0
 13 15  1  0  0  0  0
 13 39  1  0  0  0  0
 13 40  1  0  0  0  0
 14 41  1  0  0  0  0
 14 42  1  0  0  0  0
 15 43  1  0  0  0  0
 15 44  1  0  0  0  0
 16 19  1  0  0  0  0
 16 45  1  0  0  0  0
 16 46  1  0  0  0  0
 17 21  1  0  0  0  0
 17 47  1  0  0  0  0
 17 48  1  0  0  0  0
 18 27  1  0  0  0  0
 19 20  2  0  0  0  0
 20 21  1  0  0  0  0
 22 25  1  0  0  0  0
 22 49  1  0  0  0  0
 22 50  1  0  0  0  0
 23 26  1  0  0  0  0
 23 51  1  0  0  0  0
 23 52  1  0  0  0  0
 25 26  1  0  0  0  0
 25 53  1  0  0  0  0
 25 54  1  0  0  0  0
 26 55  1  0  0  0  0
 26 56  1  0  0  0  0
 27 28  2  0  0  0  0
 27 29  1  0  0  0  0
 28 30  1  0  0  0  0
 29 31  2  0  0  0  0
 29 57  1  0  0  0  0
 30 32  2  0  0  0  0
 30 58  1  0  0  0  0
 31 32  1  0  0  0  0
 31 59  1  0  0  0  0
M  END
> <PUBCHEM_COMPOUND_CID>
90666902

> <PUBCHEM_COMPOUND_CANONICALIZED>
1

> <PUBCHEM_CACTVS_COMPLEXITY>
687

> <PUBCHEM_CACTVS_HBOND_ACCEPTOR>
8

> <PUBCHEM_CACTVS_HBOND_DONOR>
0

> <PUBCHEM_CACTVS_ROTATABLE_BOND>
4

> <PUBCHEM_CACTVS_SUBSKEYS>
AAADceB7sQBAAAAAAAAAAAAAAAAAAWLFgAA8YIAAAAAAAFgB/AAAHwQEAAAADQzB3gwxl9MYEAitA6RyZgCC8KllKDgpmDU+TNqIJrrgnZOEMYBuwBvIyeecyeCeAAAAAAAIAAAgAACAABACAAAAAAAAAA==

> <PUBCHEM_IUPAC_OPENEYE_NAME>
5-[[4-(6-fluoro-1,2-benzoxazol-3-yl)-1-piperidyl]methyl]-2-pyrrolidin-1-yl-5,6-dihydro-4H-1,3-benzothiazol-7-one

> <PUBCHEM_IUPAC_CAS_NAME>
5-[[4-(6-fluoro-1,2-benzoxazol-3-yl)-1-piperidinyl]methyl]-2-(1-pyrrolidinyl)-5,6-dihydro-4H-1,3-benzothiazol-7-one

> <PUBCHEM_IUPAC_NAME_MARKUP>
5-[[4-(6-fluoro-1,2-benzoxazol-3-yl)piperidin-1-yl]methyl]-2-pyrrolidin-1-yl-5,6-dihydro-4<I>H</I>-1,3-benzothiazol-7-one

> <PUBCHEM_IUPAC_NAME>
5-[[4-(6-fluoro-1,2-benzoxazol-3-yl)piperidin-1-yl]methyl]-2-pyrrolidin-1-yl-5,6-dihydro-4H-1,3-benzothiazol-7-one

> <PUBCHEM_IUPAC_SYSTEMATIC_NAME>
5-[[4-(6-fluoranyl-1,2-benzoxazol-3-yl)piperidin-1-yl]methyl]-2-pyrrolidin-1-yl-5,6-dihydro-4H-1,3-benzothiazol-7-one

> <PUBCHEM_IUPAC_TRADITIONAL_NAME>
5-[[4-(6-fluoroindoxazen-3-yl)piperidino]methyl]-2-pyrrolidino-5,6-dihydro-4H-1,3-benzothiazol-7-one

> <PUBCHEM_IUPAC_INCHI>
InChI=1S/C24H27FN4O2S/c25-17-3-4-18-21(13-17)31-27-22(18)16-5-9-28(10-6-16)14-15-11-19-23(20(30)12-15)32-24(26-19)29-7-1-2-8-29/h3-4,13,15-16H,1-2,5-12,14H2

> <PUBCHEM_IUPAC_INCHIKEY>
LFHRZNSXQMBPEO-UHFFFAOYSA-N

> <PUBCHEM_XLOGP3_AA>
4.5

> <PUBCHEM_EXACT_MASS>
454.18387545

> <PUBCHEM_MOLECULAR_FORMULA>
C24H27FN4O2S

> <PUBCHEM_MOLECULAR_WEIGHT>
454.6

> <PUBCHEM_OPENEYE_CAN_SMILES>
C1CCN(C1)C2=NC3=C(S2)C(=O)CC(C3)CN4CCC(CC4)C5=NOC6=C5C=CC(=C6)F

> <PUBCHEM_OPENEYE_ISO_SMILES>
C1CCN(C1)C2=NC3=C(S2)C(=O)CC(C3)CN4CCC(CC4)C5=NOC6=C5C=CC(=C6)F

> <PUBCHEM_CACTVS_TPSA>
90.7

> <PUBCHEM_MONOISOTOPIC_WEIGHT>
454.18387545

> <PUBCHEM_TOTAL_CHARGE>
0

> <PUBCHEM_HEAVY_ATOM_COUNT>
32

> <PUBCHEM_ATOM_DEF_STEREO_COUNT>
0

> <PUBCHEM_ATOM_UDEF_STEREO_COUNT>
1

> <PUBCHEM_BOND_DEF_STEREO_COUNT>
0

> <PUBCHEM_BOND_UDEF_STEREO_COUNT>
0

> <PUBCHEM_ISOTOPIC_ATOM_COUNT>
0

> <PUBCHEM_COMPONENT_COUNT>
1

> <PUBCHEM_CACTVS_TAUTO_COUNT>
-1

> <PUBCHEM_COORDINATE_TYPE>
1
5
255

> <PUBCHEM_BONDANNOTATIONS>
1  20  8
1  24  8
18  27  8
19  20  8
27  28  8
27  29  8
28  30  8
29  31  8
3  28  8
3  8  8
30  32  8
31  32  8
7  19  8
7  24  8
8  18  8
9  11  3

$$$$
