11260311
  -OEChem-09292322262D

 60 64  0     1  0  0  0  0  0999 V2000
    4.3930   -5.1450    0.0000 Cl  0  0  0  0  0  0  0  0  0  0  0  0
    4.7036   -2.5850    0.0000 S   0  0  0  0  0  0  0  0  0  0  0  0
   10.9120    5.1344    0.0000 F   0  0  0  0  0  0  0  0  0  0  0  0
    7.3819   -2.8897    0.0000 O   0  0  0  0  0  0  0  0  0  0  0  0
    2.6200   -4.2557    0.0000 O   0  0  0  0  0  0  0  0  0  0  0  0
    7.3819    0.1103    0.0000 N   0  0  3  0  0  0  0  0  0  0  0  0
    7.3819    2.1103    0.0000 N   0  0  3  0  0  0  0  0  0  0  0  0
    2.6200   -2.5237    0.0000 N   0  0  0  0  0  0  0  0  0  0  0  0
    8.2479    0.6103    0.0000 C   0  0  1  0  0  0  0  0  0  0  0  0
    8.2479    1.6103    0.0000 C   0  0  0  0  0  0  0  0  0  0  0  0
    6.5158    0.6103    0.0000 C   0  0  0  0  0  0  0  0  0  0  0  0
    7.3819   -0.8897    0.0000 C   0  0  0  0  0  0  0  0  0  0  0  0
    6.5158    1.6103    0.0000 C   0  0  0  0  0  0  0  0  0  0  0  0
    6.5158   -1.3897    0.0000 C   0  0  0  0  0  0  0  0  0  0  0  0
    6.5158   -2.3897    0.0000 C   0  0  3  0  0  0  0  0  0  0  0  0
    9.1139    0.1103    0.0000 C   0  0  0  0  0  0  0  0  0  0  0  0
    7.3819    3.1103    0.0000 C   0  0  0  0  0  0  0  0  0  0  0  0
    5.6498   -2.8897    0.0000 C   0  0  0  0  0  0  0  0  0  0  0  0
    5.6498   -3.8897    0.0000 C   0  0  0  0  0  0  0  0  0  0  0  0
    6.5158   -4.3897    0.0000 C   0  0  0  0  0  0  0  0  0  0  0  0
    7.3819   -3.8897    0.0000 C   0  0  0  0  0  0  0  0  0  0  0  0
    8.2479    3.6103    0.0000 C   0  0  0  0  0  0  0  0  0  0  0  0
    6.5158    3.6103    0.0000 C   0  0  0  0  0  0  0  0  0  0  0  0
    4.7036   -4.1944    0.0000 C   0  0  0  0  0  0  0  0  0  0  0  0
    8.2479    4.6103    0.0000 C   0  0  0  0  0  0  0  0  0  0  0  0
    4.1200   -3.3897    0.0000 C   0  0  0  0  0  0  0  0  0  0  0  0
    6.5158    4.6103    0.0000 C   0  0  0  0  0  0  0  0  0  0  0  0
    9.1418    3.0756    0.0000 C   0  0  0  0  0  0  0  0  0  0  0  0
    7.3819    5.1103    0.0000 C   0  0  0  0  0  0  0  0  0  0  0  0
    9.1418    5.1450    0.0000 C   0  0  0  0  0  0  0  0  0  0  0  0
   10.0479    3.5895    0.0000 C   0  0  0  0  0  0  0  0  0  0  0  0
    3.1200   -3.3897    0.0000 C   0  0  0  0  0  0  0  0  0  0  0  0
   10.0479    4.6311    0.0000 C   0  0  0  0  0  0  0  0  0  0  0  0
    8.2479   -0.0097    0.0000 H   0  0  0  0  0  0  0  0  0  0  0  0
    8.8585    1.5026    0.0000 H   0  0  0  0  0  0  0  0  0  0  0  0
    8.4600    2.1929    0.0000 H   0  0  0  0  0  0  0  0  0  0  0  0
    5.9053    0.7180    0.0000 H   0  0  0  0  0  0  0  0  0  0  0  0
    6.3038    0.0277    0.0000 H   0  0  0  0  0  0  0  0  0  0  0  0
    7.5939   -1.4723    0.0000 H   0  0  0  0  0  0  0  0  0  0  0  0
    7.9925   -0.7820    0.0000 H   0  0  0  0  0  0  0  0  0  0  0  0
    6.3038    2.1929    0.0000 H   0  0  0  0  0  0  0  0  0  0  0  0
    5.9053    1.5026    0.0000 H   0  0  0  0  0  0  0  0  0  0  0  0
    6.3038   -0.8071    0.0000 H   0  0  0  0  0  0  0  0  0  0  0  0
    5.9053   -1.4974    0.0000 H   0  0  0  0  0  0  0  0  0  0  0  0
    7.0528   -2.0797    0.0000 H   0  0  0  0  0  0  0  0  0  0  0  0
    8.8039   -0.4266    0.0000 H   0  0  0  0  0  0  0  0  0  0  0  0
    9.6509   -0.1997    0.0000 H   0  0  0  0  0  0  0  0  0  0  0  0
    9.4239    0.6472    0.0000 H   0  0  0  0  0  0  0  0  0  0  0  0
    6.1173   -4.8646    0.0000 H   0  0  0  0  0  0  0  0  0  0  0  0
    6.9144   -4.8646    0.0000 H   0  0  0  0  0  0  0  0  0  0  0  0
    7.5939   -4.4723    0.0000 H   0  0  0  0  0  0  0  0  0  0  0  0
    7.9925   -3.7820    0.0000 H   0  0  0  0  0  0  0  0  0  0  0  0
    5.9789    3.3003    0.0000 H   0  0  0  0  0  0  0  0  0  0  0  0
    5.9789    4.9203    0.0000 H   0  0  0  0  0  0  0  0  0  0  0  0
    9.1347    2.4557    0.0000 H   0  0  0  0  0  0  0  0  0  0  0  0
    7.3819    5.7303    0.0000 H   0  0  0  0  0  0  0  0  0  0  0  0
    9.1347    5.7649    0.0000 H   0  0  0  0  0  0  0  0  0  0  0  0
   10.5837    3.2774    0.0000 H   0  0  0  0  0  0  0  0  0  0  0  0
    2.0000   -2.5237    0.0000 H   0  0  0  0  0  0  0  0  0  0  0  0
    2.9300   -1.9867    0.0000 H   0  0  0  0  0  0  0  0  0  0  0  0
  1 24  1  0  0  0  0
  2 18  1  0  0  0  0
  2 26  1  0  0  0  0
  3 33  1  0  0  0  0
  4 15  1  0  0  0  0
  4 21  1  0  0  0  0
  5 32  2  0  0  0  0
  6  9  1  0  0  0  0
  6 11  1  0  0  0  0
  6 12  1  0  0  0  0
  7 10  1  0  0  0  0
  7 13  1  0  0  0  0
  7 17  1  0  0  0  0
  8 32  1  0  0  0  0
  8 59  1  0  0  0  0
  8 60  1  0  0  0  0
  9 10  1  0  0  0  0
  9 16  1  1  0  0  0
  9 34  1  0  0  0  0
 10 35  1  0  0  0  0
 10 36  1  0  0  0  0
 11 13  1  0  0  0  0
 11 37  1  0  0  0  0
 11 38  1  0  0  0  0
 12 14  1  0  0  0  0
 12 39  1  0  0  0  0
 12 40  1  0  0  0  0
 13 41  1  0  0  0  0
 13 42  1  0  0  0  0
 14 15  1  0  0  0  0
 14 43  1  0  0  0  0
 14 44  1  0  0  0  0
 15 18  1  0  0  0  0
 15 45  1  0  0  0  0
 16 46  1  0  0  0  0
 16 47  1  0  0  0  0
 16 48  1  0  0  0  0
 17 22  1  0  0  0  0
 17 23  2  0  0  0  0
 18 19  2  0  0  0  0
 19 20  1  0  0  0  0
 19 24  1  0  0  0  0
 20 21  1  0  0  0  0
 20 49  1  0  0  0  0
 20 50  1  0  0  0  0
 21 51  1  0  0  0  0
 21 52  1  0  0  0  0
 22 25  2  0  0  0  0
 22 28  1  0  0  0  0
 23 27  1  0  0  0  0
 23 53  1  0  0  0  0
 24 26  2  0  0  0  0
 25 29  1  0  0  0  0
 25 30  1  0  0  0  0
 26 32  1  0  0  0  0
 27 29  2  0  0  0  0
 27 54  1  0  0  0  0
 28 31  2  0  0  0  0
 28 55  1  0  0  0  0
 29 56  1  0  0  0  0
 30 33  2  0  0  0  0
 30 57  1  0  0  0  0
 31 33  1  0  0  0  0
 31 58  1  0  0  0  0
M  END
> <PUBCHEM_COMPOUND_CID>
11260311

> <PUBCHEM_COMPOUND_CANONICALIZED>
1

> <PUBCHEM_CACTVS_COMPLEXITY>
705

> <PUBCHEM_CACTVS_HBOND_ACCEPTOR>
6

> <PUBCHEM_CACTVS_HBOND_DONOR>
1

> <PUBCHEM_CACTVS_ROTATABLE_BOND>
5

> <PUBCHEM_CACTVS_SUBSKEYS>
AAADceB7MQBEAAAAAAAAAAAAAAAAASAAAAA8aIEAAAAAAEjB1AAAHwYQAAAADD7h2C4ywcNABAiMAiVSUACDAIAlDhAIiBEIbsgIZjLht5mWMQhmwAHo7QeYyKCOgAAAQAASAAAAAACAACQAAAAAAAAAAA==

> <PUBCHEM_IUPAC_OPENEYE_NAME>
3-chloro-7-[2-[(2R)-4-(6-fluoro-1-naphthyl)-2-methyl-piperazin-1-yl]ethyl]-5,7-dihydro-4H-thieno[2,3-c]pyran-2-carboxamide

> <PUBCHEM_IUPAC_CAS_NAME>
3-chloro-7-[2-[(2R)-4-(6-fluoro-1-naphthalenyl)-2-methyl-1-piperazinyl]ethyl]-5,7-dihydro-4H-thieno[2,3-c]pyran-2-carboxamide

> <PUBCHEM_IUPAC_NAME_MARKUP>
3-chloro-7-[2-[(2<I>R</I>)-4-(6-fluoronaphthalen-1-yl)-2-methylpiperazin-1-yl]ethyl]-5,7-dihydro-4<I>H</I>-thieno[2,3-c]pyran-2-carboxamide

> <PUBCHEM_IUPAC_NAME>
3-chloro-7-[2-[(2R)-4-(6-fluoronaphthalen-1-yl)-2-methylpiperazin-1-yl]ethyl]-5,7-dihydro-4H-thieno[2,3-c]pyran-2-carboxamide

> <PUBCHEM_IUPAC_SYSTEMATIC_NAME>
3-chloranyl-7-[2-[(2R)-4-(6-fluoranylnaphthalen-1-yl)-2-methyl-piperazin-1-yl]ethyl]-5,7-dihydro-4H-thieno[2,3-c]pyran-2-carboxamide

> <PUBCHEM_IUPAC_TRADITIONAL_NAME>
3-chloro-7-[2-[(2R)-4-(6-fluoro-1-naphthyl)-2-methyl-piperazino]ethyl]-5,7-dihydro-4H-thieno[2,3-c]pyran-2-carboxamide

> <PUBCHEM_IUPAC_INCHI>
InChI=1S/C25H27ClFN3O2S/c1-15-14-30(20-4-2-3-16-13-17(27)5-6-18(16)20)11-10-29(15)9-7-21-23-19(8-12-32-21)22(26)24(33-23)25(28)31/h2-6,13,15,21H,7-12,14H2,1H3,(H2,28,31)/t15-,21?/m1/s1

> <PUBCHEM_IUPAC_INCHIKEY>
CAALEIZWPZRHJM-RBFZIWAESA-N

> <PUBCHEM_XLOGP3_AA>
5

> <PUBCHEM_EXACT_MASS>
487.1496541

> <PUBCHEM_MOLECULAR_FORMULA>
C25H27ClFN3O2S

> <PUBCHEM_MOLECULAR_WEIGHT>
488.0

> <PUBCHEM_OPENEYE_CAN_SMILES>
CC1CN(CCN1CCC2C3=C(CCO2)C(=C(S3)C(=O)N)Cl)C4=CC=CC5=C4C=CC(=C5)F

> <PUBCHEM_OPENEYE_ISO_SMILES>
C[C@@H]1CN(CCN1CCC2C3=C(CCO2)C(=C(S3)C(=O)N)Cl)C4=CC=CC5=C4C=CC(=C5)F

> <PUBCHEM_CACTVS_TPSA>
87

> <PUBCHEM_MONOISOTOPIC_WEIGHT>
487.1496541

> <PUBCHEM_TOTAL_CHARGE>
0

> <PUBCHEM_HEAVY_ATOM_COUNT>
33

> <PUBCHEM_ATOM_DEF_STEREO_COUNT>
1

> <PUBCHEM_ATOM_UDEF_STEREO_COUNT>
1

> <PUBCHEM_BOND_DEF_STEREO_COUNT>
0

> <PUBCHEM_BOND_UDEF_STEREO_COUNT>
0

> <PUBCHEM_ISOTOPIC_ATOM_COUNT>
0

> <PUBCHEM_COMPONENT_COUNT>
1

> <PUBCHEM_CACTVS_TAUTO_COUNT>
-1

> <PUBCHEM_COORDINATE_TYPE>
1
5
255

> <PUBCHEM_BONDANNOTATIONS>
15  14  3
17  22  8
17  23  8
18  19  8
19  24  8
2  18  8
2  26  8
22  25  8
22  28  8
23  27  8
24  26  8
25  29  8
25  30  8
27  29  8
28  31  8
30  33  8
31  33  8
9  16  5

$$$$
