1687
  -OEChem-09292322102D

 48 51  0     1  0  0  0  0  0999 V2000
    2.0000   -2.4568    0.0000 Cl  0  0  0  0  0  0  0  0  0  0  0  0
    5.9324   -0.1039    0.0000 O   0  0  0  0  0  0  0  0  0  0  0  0
    8.4444    2.4931    0.0000 N   0  0  0  0  0  0  0  0  0  0  0  0
    8.9222    0.5446    0.0000 C   0  0  3  0  0  0  0  0  0  0  0  0
    9.1810    1.5105    0.0000 C   0  0  3  0  0  0  0  0  0  0  0  0
   10.3211    0.0357    0.0000 C   0  0  0  0  0  0  0  0  0  0  0  0
   10.5799    1.0017    0.0000 C   0  0  0  0  0  0  0  0  0  0  0  0
    7.7012   -0.3211    0.0000 C   0  0  0  0  0  0  0  0  0  0  0  0
    7.1478    1.1994    0.0000 C   0  0  0  0  0  0  0  0  0  0  0  0
    6.8721    0.2381    0.0000 C   0  0  0  0  0  0  0  0  0  0  0  0
    7.9444    3.3591    0.0000 C   0  0  0  0  0  0  0  0  0  0  0  0
    5.7588   -1.0887    0.0000 C   0  0  3  0  0  0  0  0  0  0  0  0
    4.8191   -1.4308    0.0000 C   0  0  0  0  0  0  0  0  0  0  0  0
    6.5248   -1.7315    0.0000 C   0  0  0  0  0  0  0  0  0  0  0  0
    4.6454   -2.4156    0.0000 C   0  0  0  0  0  0  0  0  0  0  0  0
    4.0530   -0.7880    0.0000 C   0  0  0  0  0  0  0  0  0  0  0  0
    7.4645   -1.3895    0.0000 C   0  0  0  0  0  0  0  0  0  0  0  0
    6.3512   -2.7163    0.0000 C   0  0  0  0  0  0  0  0  0  0  0  0
    3.7057   -2.7576    0.0000 C   0  0  0  0  0  0  0  0  0  0  0  0
    3.1133   -1.1300    0.0000 C   0  0  0  0  0  0  0  0  0  0  0  0
    8.2305   -2.0323    0.0000 C   0  0  0  0  0  0  0  0  0  0  0  0
    7.1172   -3.3591    0.0000 C   0  0  0  0  0  0  0  0  0  0  0  0
    2.9397   -2.1148    0.0000 C   0  0  0  0  0  0  0  0  0  0  0  0
    8.0569   -3.0171    0.0000 C   0  0  0  0  0  0  0  0  0  0  0  0
    9.0050   -0.0699    0.0000 H   0  0  0  0  0  0  0  0  0  0  0  0
    9.5504    2.0084    0.0000 H   0  0  0  0  0  0  0  0  0  0  0  0
   10.1262   -0.5528    0.0000 H   0  0  0  0  0  0  0  0  0  0  0  0
   10.9151   -0.1420    0.0000 H   0  0  0  0  0  0  0  0  0  0  0  0
   11.1739    0.8239    0.0000 H   0  0  0  0  0  0  0  0  0  0  0  0
   10.7749    1.5902    0.0000 H   0  0  0  0  0  0  0  0  0  0  0  0
    7.2953   -0.7898    0.0000 H   0  0  0  0  0  0  0  0  0  0  0  0
    8.1178   -0.7802    0.0000 H   0  0  0  0  0  0  0  0  0  0  0  0
    7.1427    1.8193    0.0000 H   0  0  0  0  0  0  0  0  0  0  0  0
    6.5334    1.2831    0.0000 H   0  0  0  0  0  0  0  0  0  0  0  0
    6.7966   -0.3773    0.0000 H   0  0  0  0  0  0  0  0  0  0  0  0
    8.4813    3.6691    0.0000 H   0  0  0  0  0  0  0  0  0  0  0  0
    7.6344    3.8961    0.0000 H   0  0  0  0  0  0  0  0  0  0  0  0
    7.4074    3.0491    0.0000 H   0  0  0  0  0  0  0  0  0  0  0  0
    5.2838   -0.6902    0.0000 H   0  0  0  0  0  0  0  0  0  0  0  0
    5.1204   -2.8141    0.0000 H   0  0  0  0  0  0  0  0  0  0  0  0
    4.1607   -0.1774    0.0000 H   0  0  0  0  0  0  0  0  0  0  0  0
    7.5722   -0.7789    0.0000 H   0  0  0  0  0  0  0  0  0  0  0  0
    5.7686   -2.9284    0.0000 H   0  0  0  0  0  0  0  0  0  0  0  0
    3.5981   -3.3682    0.0000 H   0  0  0  0  0  0  0  0  0  0  0  0
    2.6384   -0.7315    0.0000 H   0  0  0  0  0  0  0  0  0  0  0  0
    8.8132   -1.8202    0.0000 H   0  0  0  0  0  0  0  0  0  0  0  0
    7.0096   -3.9697    0.0000 H   0  0  0  0  0  0  0  0  0  0  0  0
    8.5318   -3.4156    0.0000 H   0  0  0  0  0  0  0  0  0  0  0  0
  1 23  1  0  0  0  0
  2 10  1  0  0  0  0
  2 12  1  0  0  0  0
  3  4  1  0  0  0  0
  3  5  1  0  0  0  0
  3 11  1  0  0  0  0
  4  6  1  0  0  0  0
  4  8  1  0  0  0  0
  4 25  1  0  0  0  0
  5  7  1  0  0  0  0
  5  9  1  0  0  0  0
  5 26  1  0  0  0  0
  6  7  1  0  0  0  0
  6 27  1  0  0  0  0
  6 28  1  0  0  0  0
  7 29  1  0  0  0  0
  7 30  1  0  0  0  0
  8 10  1  0  0  0  0
  8 31  1  0  0  0  0
  8 32  1  0  0  0  0
  9 10  1  0  0  0  0
  9 33  1  0  0  0  0
  9 34  1  0  0  0  0
 10 35  1  0  0  0  0
 11 36  1  0  0  0  0
 11 37  1  0  0  0  0
 11 38  1  0  0  0  0
 12 13  1  0  0  0  0
 12 14  1  0  0  0  0
 12 39  1  0  0  0  0
 13 15  2  0  0  0  0
 13 16  1  0  0  0  0
 14 17  2  0  0  0  0
 14 18  1  0  0  0  0
 15 19  1  0  0  0  0
 15 40  1  0  0  0  0
 16 20  2  0  0  0  0
 16 41  1  0  0  0  0
 17 21  1  0  0  0  0
 17 42  1  0  0  0  0
 18 22  2  0  0  0  0
 18 43  1  0  0  0  0
 19 23  2  0  0  0  0
 19 44  1  0  0  0  0
 20 23  1  0  0  0  0
 20 45  1  0  0  0  0
 21 24  2  0  0  0  0
 21 46  1  0  0  0  0
 22 24  1  0  0  0  0
 22 47  1  0  0  0  0
 24 48  1  0  0  0  0
M  END
> <PUBCHEM_COMPOUND_CID>
1687

> <PUBCHEM_COMPOUND_CANONICALIZED>
1

> <PUBCHEM_CACTVS_COMPLEXITY>
389

> <PUBCHEM_CACTVS_HBOND_ACCEPTOR>
2

> <PUBCHEM_CACTVS_HBOND_DONOR>
0

> <PUBCHEM_CACTVS_ROTATABLE_BOND>
4

> <PUBCHEM_CACTVS_SUBSKEYS>
AAADceB6IAAEAAAAAAAAAAAAAAAAAWAAAAA8YIAABgAAAAABQAAAHgIAAAAADD7hmCYyAIMABACAAiBCAAACAAAgBQAIiAAICogIJiKBsxiGMAAmwAGIqAeQwOAOBAAAAAAAAAAIAAAAAAAAAAAAAAAAAA==

> <PUBCHEM_IUPAC_OPENEYE_NAME>
3-[(4-chlorophenyl)-phenyl-methoxy]-8-methyl-8-azabicyclo[3.2.1]octane

> <PUBCHEM_IUPAC_CAS_NAME>
3-[(4-chlorophenyl)-phenylmethoxy]-8-methyl-8-azabicyclo[3.2.1]octane

> <PUBCHEM_IUPAC_NAME_MARKUP>
3-[(4-chlorophenyl)-phenylmethoxy]-8-methyl-8-azabicyclo[3.2.1]octane

> <PUBCHEM_IUPAC_NAME>
3-[(4-chlorophenyl)-phenylmethoxy]-8-methyl-8-azabicyclo[3.2.1]octane

> <PUBCHEM_IUPAC_SYSTEMATIC_NAME>
3-[(4-chlorophenyl)-phenyl-methoxy]-8-methyl-8-azabicyclo[3.2.1]octane

> <PUBCHEM_IUPAC_TRADITIONAL_NAME>
3-[(4-chlorophenyl)-phenyl-methoxy]-8-methyl-8-azabicyclo[3.2.1]octane

> <PUBCHEM_IUPAC_INCHI>
InChI=1S/C21H24ClNO/c1-23-18-11-12-19(23)14-20(13-18)24-21(15-5-3-2-4-6-15)16-7-9-17(22)10-8-16/h2-10,18-21H,11-14H2,1H3

> <PUBCHEM_IUPAC_INCHIKEY>
OCAXFDULERPAJM-UHFFFAOYSA-N

> <PUBCHEM_XLOGP3_AA>
5.1

> <PUBCHEM_EXACT_MASS>
341.1546421

> <PUBCHEM_MOLECULAR_FORMULA>
C21H24ClNO

> <PUBCHEM_MOLECULAR_WEIGHT>
341.9

> <PUBCHEM_OPENEYE_CAN_SMILES>
CN1C2CCC1CC(C2)OC(C3=CC=CC=C3)C4=CC=C(C=C4)Cl

> <PUBCHEM_OPENEYE_ISO_SMILES>
CN1C2CCC1CC(C2)OC(C3=CC=CC=C3)C4=CC=C(C=C4)Cl

> <PUBCHEM_CACTVS_TPSA>
12.5

> <PUBCHEM_MONOISOTOPIC_WEIGHT>
341.1546421

> <PUBCHEM_TOTAL_CHARGE>
0

> <PUBCHEM_HEAVY_ATOM_COUNT>
24

> <PUBCHEM_ATOM_DEF_STEREO_COUNT>
0

> <PUBCHEM_ATOM_UDEF_STEREO_COUNT>
3

> <PUBCHEM_BOND_DEF_STEREO_COUNT>
0

> <PUBCHEM_BOND_UDEF_STEREO_COUNT>
0

> <PUBCHEM_ISOTOPIC_ATOM_COUNT>
0

> <PUBCHEM_COMPONENT_COUNT>
1

> <PUBCHEM_CACTVS_TAUTO_COUNT>
1

> <PUBCHEM_COORDINATE_TYPE>
1
5
255

> <PUBCHEM_BONDANNOTATIONS>
13  15  8
13  16  8
14  17  8
14  18  8
15  19  8
16  20  8
17  21  8
18  22  8
19  23  8
12  2  3
20  23  8
21  24  8
22  24  8
4  6  3
5  7  3

$$$$
