15225749
  -OEChem-09292322282D

 44 47  0     0  0  0  0  0  0999 V2000
    8.7204   -0.9153    0.0000 Cl  0  0  0  0  0  0  0  0  0  0  0  0
    3.9491    0.8494    0.0000 N   0  0  0  0  0  0  0  0  0  0  0  0
    3.0814    2.6513    0.0000 N   0  0  0  0  0  0  0  0  0  0  0  0
    5.3830   -0.0516    0.0000 N   0  0  0  0  0  0  0  0  0  0  0  0
    4.8830   -2.2423    0.0000 N   0  0  0  0  0  0  0  0  0  0  0  0
    4.8830   -3.2423    0.0000 N   0  0  0  0  0  0  0  0  0  0  0  0
    4.5125    1.6756    0.0000 C   0  0  0  0  0  0  0  0  0  0  0  0
    2.9519    0.9241    0.0000 C   0  0  0  0  0  0  0  0  0  0  0  0
    4.0786    2.5766    0.0000 C   0  0  0  0  0  0  0  0  0  0  0  0
    2.5180    1.8251    0.0000 C   0  0  0  0  0  0  0  0  0  0  0  0
    4.3830   -0.0516    0.0000 C   0  0  0  0  0  0  0  0  0  0  0  0
    3.7595   -0.8334    0.0000 C   0  0  0  0  0  0  0  0  0  0  0  0
    2.6475    3.5523    0.0000 C   0  0  0  0  0  0  0  0  0  0  0  0
    3.9820   -1.8084    0.0000 C   0  0  0  0  0  0  0  0  0  0  0  0
    6.0065   -0.8335    0.0000 C   0  0  0  0  0  0  0  0  0  0  0  0
    5.7840   -1.8084    0.0000 C   0  0  0  0  0  0  0  0  0  0  0  0
    2.7690   -0.5111    0.0000 C   0  0  0  0  0  0  0  0  0  0  0  0
    3.2295   -2.5286    0.0000 C   0  0  0  0  0  0  0  0  0  0  0  0
    2.0000   -1.2137    0.0000 C   0  0  0  0  0  0  0  0  0  0  0  0
    6.9970   -0.5111    0.0000 C   0  0  0  0  0  0  0  0  0  0  0  0
    6.5365   -2.5286    0.0000 C   0  0  0  0  0  0  0  0  0  0  0  0
    2.2318   -2.2292    0.0000 C   0  0  0  0  0  0  0  0  0  0  0  0
    7.7660   -1.2137    0.0000 C   0  0  0  0  0  0  0  0  0  0  0  0
    7.5342   -2.2292    0.0000 C   0  0  0  0  0  0  0  0  0  0  0  0
    4.9563    1.2427    0.0000 H   0  0  0  0  0  0  0  0  0  0  0  0
    5.0159    2.0375    0.0000 H   0  0  0  0  0  0  0  0  0  0  0  0
    2.3551    0.7562    0.0000 H   0  0  0  0  0  0  0  0  0  0  0  0
    3.0137    0.3072    0.0000 H   0  0  0  0  0  0  0  0  0  0  0  0
    4.6754    2.7445    0.0000 H   0  0  0  0  0  0  0  0  0  0  0  0
    4.0168    3.1935    0.0000 H   0  0  0  0  0  0  0  0  0  0  0  0
    2.0742    2.2580    0.0000 H   0  0  0  0  0  0  0  0  0  0  0  0
    2.0146    1.4632    0.0000 H   0  0  0  0  0  0  0  0  0  0  0  0
    3.2061    3.8213    0.0000 H   0  0  0  0  0  0  0  0  0  0  0  0
    2.3785    4.1109    0.0000 H   0  0  0  0  0  0  0  0  0  0  0  0
    2.0889    3.2833    0.0000 H   0  0  0  0  0  0  0  0  0  0  0  0
    2.6380    0.0949    0.0000 H   0  0  0  0  0  0  0  0  0  0  0  0
    3.3744   -3.1314    0.0000 H   0  0  0  0  0  0  0  0  0  0  0  0
    1.4083   -1.0286    0.0000 H   0  0  0  0  0  0  0  0  0  0  0  0
    7.1280    0.0949    0.0000 H   0  0  0  0  0  0  0  0  0  0  0  0
    6.3916   -3.1314    0.0000 H   0  0  0  0  0  0  0  0  0  0  0  0
    1.7789   -2.6526    0.0000 H   0  0  0  0  0  0  0  0  0  0  0  0
    5.4199   -3.5523    0.0000 H   0  0  0  0  0  0  0  0  0  0  0  0
    4.3460   -3.5523    0.0000 H   0  0  0  0  0  0  0  0  0  0  0  0
    7.9871   -2.6527    0.0000 H   0  0  0  0  0  0  0  0  0  0  0  0
  1 23  1  0  0  0  0
  2  7  1  0  0  0  0
  2  8  1  0  0  0  0
  2 11  1  0  0  0  0
  3  9  1  0  0  0  0
  3 10  1  0  0  0  0
  3 13  1  0  0  0  0
  4 11  2  0  0  0  0
  4 15  1  0  0  0  0
  5  6  1  0  0  0  0
  5 14  1  0  0  0  0
  5 16  1  0  0  0  0
  6 42  1  0  0  0  0
  6 43  1  0  0  0  0
  7  9  1  0  0  0  0
  7 25  1  0  0  0  0
  7 26  1  0  0  0  0
  8 10  1  0  0  0  0
  8 27  1  0  0  0  0
  8 28  1  0  0  0  0
  9 29  1  0  0  0  0
  9 30  1  0  0  0  0
 10 31  1  0  0  0  0
 10 32  1  0  0  0  0
 11 12  1  0  0  0  0
 12 14  1  0  0  0  0
 12 17  2  0  0  0  0
 13 33  1  0  0  0  0
 13 34  1  0  0  0  0
 13 35  1  0  0  0  0
 14 18  2  0  0  0  0
 15 16  2  0  0  0  0
 15 20  1  0  0  0  0
 16 21  1  0  0  0  0
 17 19  1  0  0  0  0
 17 36  1  0  0  0  0
 18 22  1  0  0  0  0
 18 37  1  0  0  0  0
 19 22  2  0  0  0  0
 19 38  1  0  0  0  0
 20 23  2  0  0  0  0
 20 39  1  0  0  0  0
 21 24  2  0  0  0  0
 21 40  1  0  0  0  0
 22 41  1  0  0  0  0
 23 24  1  0  0  0  0
 24 44  1  0  0  0  0
M  END
> <PUBCHEM_COMPOUND_CID>
15225749

> <PUBCHEM_COMPOUND_CANONICALIZED>
1

> <PUBCHEM_CACTVS_COMPLEXITY>
476

> <PUBCHEM_CACTVS_HBOND_ACCEPTOR>
4

> <PUBCHEM_CACTVS_HBOND_DONOR>
1

> <PUBCHEM_CACTVS_ROTATABLE_BOND>
1

> <PUBCHEM_CACTVS_SUBSKEYS>
AAADceB7gAAEAAAAAAAAAAAAAAAAAAAAAAA8YIAABAAAAAABQAAAHAIYAAAADArBGCQzwIMCAACgAiZiZACCBAEhBwAZqAAodpgIYOLB25GUIAhggADIyAcQgAAOAABAAAICACAAAIAABAQAQAAAAAAAAA==

> <PUBCHEM_IUPAC_OPENEYE_NAME>
3-chloro-6-(4-methylpiperazin-1-yl)benzo[b][1,4]benzodiazepin-11-amine

> <PUBCHEM_IUPAC_CAS_NAME>
3-chloro-6-(4-methyl-1-piperazinyl)-11-benzo[b][1,4]benzodiazepinamine

> <PUBCHEM_IUPAC_NAME_MARKUP>
3-chloro-6-(4-methylpiperazin-1-yl)benzo[b][1,4]benzodiazepin-11-amine

> <PUBCHEM_IUPAC_NAME>
3-chloro-6-(4-methylpiperazin-1-yl)benzo[b][1,4]benzodiazepin-11-amine

> <PUBCHEM_IUPAC_SYSTEMATIC_NAME>
3-chloranyl-6-(4-methylpiperazin-1-yl)benzo[b][1,4]benzodiazepin-11-amine

> <PUBCHEM_IUPAC_TRADITIONAL_NAME>
[3-chloro-6-(4-methylpiperazino)benzo[b][1,4]benzodiazepin-11-yl]amine

> <PUBCHEM_IUPAC_INCHI>
InChI=1S/C18H20ClN5/c1-22-8-10-23(11-9-22)18-14-4-2-3-5-16(14)24(20)17-7-6-13(19)12-15(17)21-18/h2-7,12H,8-11,20H2,1H3

> <PUBCHEM_IUPAC_INCHIKEY>
KAGSOBJQFAROBR-UHFFFAOYSA-N

> <PUBCHEM_XLOGP3_AA>
2.5

> <PUBCHEM_EXACT_MASS>
341.1407234

> <PUBCHEM_MOLECULAR_FORMULA>
C18H20ClN5

> <PUBCHEM_MOLECULAR_WEIGHT>
341.8

> <PUBCHEM_OPENEYE_CAN_SMILES>
CN1CCN(CC1)C2=NC3=C(C=CC(=C3)Cl)N(C4=CC=CC=C42)N

> <PUBCHEM_OPENEYE_ISO_SMILES>
CN1CCN(CC1)C2=NC3=C(C=CC(=C3)Cl)N(C4=CC=CC=C42)N

> <PUBCHEM_CACTVS_TPSA>
48.1

> <PUBCHEM_MONOISOTOPIC_WEIGHT>
341.1407234

> <PUBCHEM_TOTAL_CHARGE>
0

> <PUBCHEM_HEAVY_ATOM_COUNT>
24

> <PUBCHEM_ATOM_DEF_STEREO_COUNT>
0

> <PUBCHEM_ATOM_UDEF_STEREO_COUNT>
0

> <PUBCHEM_BOND_DEF_STEREO_COUNT>
0

> <PUBCHEM_BOND_UDEF_STEREO_COUNT>
0

> <PUBCHEM_ISOTOPIC_ATOM_COUNT>
0

> <PUBCHEM_COMPONENT_COUNT>
1

> <PUBCHEM_CACTVS_TAUTO_COUNT>
-1

> <PUBCHEM_COORDINATE_TYPE>
1
5
255

> <PUBCHEM_BONDANNOTATIONS>
12  14  8
12  17  8
14  18  8
15  16  8
15  20  8
16  21  8
17  19  8
18  22  8
19  22  8
20  23  8
21  24  8
23  24  8

$$$$
