101885474
  -OEChem-09292322002D

 98101  0     1  0  0  0  0  0999 V2000
   16.5859   -8.2500    0.0000 O   0  0  0  0  0  0  0  0  0  0  0  0
    2.0000    8.2500    0.0000 O   0  0  0  0  0  0  0  0  0  0  0  0
    8.8600   -1.7500    0.0000 O   0  0  0  0  0  0  0  0  0  0  0  0
    9.7260    1.7500    0.0000 O   0  0  0  0  0  0  0  0  0  0  0  0
   12.3241   -4.7500    0.0000 N   0  0  3  0  0  0  0  0  0  0  0  0
    6.2619    4.7500    0.0000 N   0  0  3  0  0  0  0  0  0  0  0  0
   15.0023   -9.0547    0.0000 N   0  0  0  0  0  0  0  0  0  0  0  0
    3.5836    9.0547    0.0000 N   0  0  0  0  0  0  0  0  0  0  0  0
   10.5920   -1.7500    0.0000 N   0  0  0  0  0  0  0  0  0  0  0  0
    7.9939    1.7500    0.0000 N   0  0  0  0  0  0  0  0  0  0  0  0
   12.3241   -5.7500    0.0000 C   0  0  0  0  0  0  0  0  0  0  0  0
    6.2619    5.7500    0.0000 C   0  0  0  0  0  0  0  0  0  0  0  0
   13.1901   -6.2500    0.0000 C   0  0  0  0  0  0  0  0  0  0  0  0
    5.3958    6.2500    0.0000 C   0  0  0  0  0  0  0  0  0  0  0  0
   11.4580   -4.2500    0.0000 C   0  0  0  0  0  0  0  0  0  0  0  0
    7.1279    4.2500    0.0000 C   0  0  0  0  0  0  0  0  0  0  0  0
   13.1901   -4.2500    0.0000 C   0  0  0  0  0  0  0  0  0  0  0  0
    5.3958    4.2500    0.0000 C   0  0  0  0  0  0  0  0  0  0  0  0
   13.1901   -7.2500    0.0000 C   0  0  0  0  0  0  0  0  0  0  0  0
    5.3958    7.2500    0.0000 C   0  0  0  0  0  0  0  0  0  0  0  0
   14.0561   -7.7500    0.0000 C   0  0  0  0  0  0  0  0  0  0  0  0
    4.5298    7.7500    0.0000 C   0  0  0  0  0  0  0  0  0  0  0  0
   11.4580   -3.2500    0.0000 C   0  0  0  0  0  0  0  0  0  0  0  0
    7.1279    3.2500    0.0000 C   0  0  0  0  0  0  0  0  0  0  0  0
   15.0023   -7.4453    0.0000 C   0  0  0  0  0  0  0  0  0  0  0  0
    3.5836    7.4453    0.0000 C   0  0  0  0  0  0  0  0  0  0  0  0
   14.0561   -8.7500    0.0000 C   0  0  0  0  0  0  0  0  0  0  0  0
    4.5298    8.7500    0.0000 C   0  0  0  0  0  0  0  0  0  0  0  0
   13.1901   -3.2500    0.0000 C   0  0  0  0  0  0  0  0  0  0  0  0
    4.5298    4.7500    0.0000 C   0  0  0  0  0  0  0  0  0  0  0  0
   10.5920   -2.7500    0.0000 C   0  0  0  0  0  0  0  0  0  0  0  0
    7.9939    2.7500    0.0000 C   0  0  0  0  0  0  0  0  0  0  0  0
   12.3241   -7.7500    0.0000 C   0  0  0  0  0  0  0  0  0  0  0  0
    6.2619    7.7500    0.0000 C   0  0  0  0  0  0  0  0  0  0  0  0
   15.5859   -8.2500    0.0000 C   0  0  0  0  0  0  0  0  0  0  0  0
    3.0000    8.2500    0.0000 C   0  0  0  0  0  0  0  0  0  0  0  0
   13.1901   -9.2500    0.0000 C   0  0  0  0  0  0  0  0  0  0  0  0
    5.3958    9.2500    0.0000 C   0  0  0  0  0  0  0  0  0  0  0  0
   12.3241   -8.7500    0.0000 C   0  0  0  0  0  0  0  0  0  0  0  0
    6.2619    8.7500    0.0000 C   0  0  0  0  0  0  0  0  0  0  0  0
   14.0561   -2.7500    0.0000 C   0  0  0  0  0  0  0  0  0  0  0  0
    3.6638    4.2500    0.0000 C   0  0  0  0  0  0  0  0  0  0  0  0
    9.7260   -0.2500    0.0000 C   0  0  0  0  0  0  0  0  0  0  0  0
    8.8600    0.2500    0.0000 C   0  0  0  0  0  0  0  0  0  0  0  0
    9.7260   -1.2500    0.0000 C   0  0  0  0  0  0  0  0  0  0  0  0
    8.8600    1.2500    0.0000 C   0  0  0  0  0  0  0  0  0  0  0  0
   11.7135   -5.6423    0.0000 H   0  0  0  0  0  0  0  0  0  0  0  0
   12.1120   -6.3326    0.0000 H   0  0  0  0  0  0  0  0  0  0  0  0
    6.8725    5.6423    0.0000 H   0  0  0  0  0  0  0  0  0  0  0  0
    6.4739    6.3326    0.0000 H   0  0  0  0  0  0  0  0  0  0  0  0
   13.8007   -6.3577    0.0000 H   0  0  0  0  0  0  0  0  0  0  0  0
   13.4021   -5.6674    0.0000 H   0  0  0  0  0  0  0  0  0  0  0  0
    4.7853    6.3577    0.0000 H   0  0  0  0  0  0  0  0  0  0  0  0
    5.1838    5.6674    0.0000 H   0  0  0  0  0  0  0  0  0  0  0  0
   10.8475   -4.1423    0.0000 H   0  0  0  0  0  0  0  0  0  0  0  0
   11.2460   -4.8326    0.0000 H   0  0  0  0  0  0  0  0  0  0  0  0
    7.7385    4.1423    0.0000 H   0  0  0  0  0  0  0  0  0  0  0  0
    7.3400    4.8326    0.0000 H   0  0  0  0  0  0  0  0  0  0  0  0
   13.4021   -4.8326    0.0000 H   0  0  0  0  0  0  0  0  0  0  0  0
   13.8007   -4.1423    0.0000 H   0  0  0  0  0  0  0  0  0  0  0  0
    4.9973    3.7750    0.0000 H   0  0  0  0  0  0  0  0  0  0  0  0
    5.7944    3.7750    0.0000 H   0  0  0  0  0  0  0  0  0  0  0  0
   12.0686   -3.3577    0.0000 H   0  0  0  0  0  0  0  0  0  0  0  0
   11.6701   -2.6674    0.0000 H   0  0  0  0  0  0  0  0  0  0  0  0
    6.5173    3.3577    0.0000 H   0  0  0  0  0  0  0  0  0  0  0  0
    6.9158    2.6674    0.0000 H   0  0  0  0  0  0  0  0  0  0  0  0
   15.5397   -7.1360    0.0000 H   0  0  0  0  0  0  0  0  0  0  0  0
   14.7513   -6.8784    0.0000 H   0  0  0  0  0  0  0  0  0  0  0  0
    3.0462    7.1360    0.0000 H   0  0  0  0  0  0  0  0  0  0  0  0
    3.8346    6.8784    0.0000 H   0  0  0  0  0  0  0  0  0  0  0  0
   12.9780   -2.6674    0.0000 H   0  0  0  0  0  0  0  0  0  0  0  0
   12.5795   -3.3577    0.0000 H   0  0  0  0  0  0  0  0  0  0  0  0
    4.9284    5.2250    0.0000 H   0  0  0  0  0  0  0  0  0  0  0  0
    4.1313    5.2250    0.0000 H   0  0  0  0  0  0  0  0  0  0  0  0
    9.9814   -2.6423    0.0000 H   0  0  0  0  0  0  0  0  0  0  0  0
   10.3800   -3.3326    0.0000 H   0  0  0  0  0  0  0  0  0  0  0  0
    8.6045    2.6423    0.0000 H   0  0  0  0  0  0  0  0  0  0  0  0
    8.2060    3.3326    0.0000 H   0  0  0  0  0  0  0  0  0  0  0  0
   11.7871   -7.4400    0.0000 H   0  0  0  0  0  0  0  0  0  0  0  0
    6.7988    7.4400    0.0000 H   0  0  0  0  0  0  0  0  0  0  0  0
   15.1949   -9.6441    0.0000 H   0  0  0  0  0  0  0  0  0  0  0  0
    3.3910    9.6441    0.0000 H   0  0  0  0  0  0  0  0  0  0  0  0
   13.1901   -9.8700    0.0000 H   0  0  0  0  0  0  0  0  0  0  0  0
    5.3958    9.8700    0.0000 H   0  0  0  0  0  0  0  0  0  0  0  0
   11.7871   -9.0600    0.0000 H   0  0  0  0  0  0  0  0  0  0  0  0
    6.7988    9.0600    0.0000 H   0  0  0  0  0  0  0  0  0  0  0  0
   14.3661   -3.2869    0.0000 H   0  0  0  0  0  0  0  0  0  0  0  0
   14.5930   -2.4400    0.0000 H   0  0  0  0  0  0  0  0  0  0  0  0
   13.7461   -2.2131    0.0000 H   0  0  0  0  0  0  0  0  0  0  0  0
    3.3538    4.7869    0.0000 H   0  0  0  0  0  0  0  0  0  0  0  0
    3.1269    3.9400    0.0000 H   0  0  0  0  0  0  0  0  0  0  0  0
    3.9738    3.7131    0.0000 H   0  0  0  0  0  0  0  0  0  0  0  0
   11.1289   -1.4400    0.0000 H   0  0  0  0  0  0  0  0  0  0  0  0
    7.4570    1.4400    0.0000 H   0  0  0  0  0  0  0  0  0  0  0  0
   10.3366   -0.3577    0.0000 H   0  0  0  0  0  0  0  0  0  0  0  0
    9.9380    0.3326    0.0000 H   0  0  0  0  0  0  0  0  0  0  0  0
    8.2494    0.3577    0.0000 H   0  0  0  0  0  0  0  0  0  0  0  0
    8.6479   -0.3326    0.0000 H   0  0  0  0  0  0  0  0  0  0  0  0
  1 35  2  0  0  0  0
  2 36  2  0  0  0  0
  3 45  2  0  0  0  0
  4 46  2  0  0  0  0
  5 11  1  0  0  0  0
  5 15  1  0  0  0  0
  5 17  1  0  0  0  0
  6 12  1  0  0  0  0
  6 16  1  0  0  0  0
  6 18  1  0  0  0  0
  7 27  1  0  0  0  0
  7 35  1  0  0  0  0
  7 81  1  0  0  0  0
  8 28  1  0  0  0  0
  8 36  1  0  0  0  0
  8 82  1  0  0  0  0
  9 31  1  0  0  0  0
  9 45  1  0  0  0  0
  9 93  1  0  0  0  0
 10 32  1  0  0  0  0
 10 46  1  0  0  0  0
 10 94  1  0  0  0  0
 11 13  1  0  0  0  0
 11 47  1  0  0  0  0
 11 48  1  0  0  0  0
 12 14  1  0  0  0  0
 12 49  1  0  0  0  0
 12 50  1  0  0  0  0
 13 19  1  0  0  0  0
 13 51  1  0  0  0  0
 13 52  1  0  0  0  0
 14 20  1  0  0  0  0
 14 53  1  0  0  0  0
 14 54  1  0  0  0  0
 15 23  1  0  0  0  0
 15 55  1  0  0  0  0
 15 56  1  0  0  0  0
 16 24  1  0  0  0  0
 16 57  1  0  0  0  0
 16 58  1  0  0  0  0
 17 29  1  0  0  0  0
 17 59  1  0  0  0  0
 17 60  1  0  0  0  0
 18 30  1  0  0  0  0
 18 61  1  0  0  0  0
 18 62  1  0  0  0  0
 19 21  2  0  0  0  0
 19 33  1  0  0  0  0
 20 22  2  0  0  0  0
 20 34  1  0  0  0  0
 21 25  1  0  0  0  0
 21 27  1  0  0  0  0
 22 26  1  0  0  0  0
 22 28  1  0  0  0  0
 23 31  1  0  0  0  0
 23 63  1  0  0  0  0
 23 64  1  0  0  0  0
 24 32  1  0  0  0  0
 24 65  1  0  0  0  0
 24 66  1  0  0  0  0
 25 35  1  0  0  0  0
 25 67  1  0  0  0  0
 25 68  1  0  0  0  0
 26 36  1  0  0  0  0
 26 69  1  0  0  0  0
 26 70  1  0  0  0  0
 27 37  2  0  0  0  0
 28 38  2  0  0  0  0
 29 41  1  0  0  0  0
 29 71  1  0  0  0  0
 29 72  1  0  0  0  0
 30 42  1  0  0  0  0
 30 73  1  0  0  0  0
 30 74  1  0  0  0  0
 31 75  1  0  0  0  0
 31 76  1  0  0  0  0
 32 77  1  0  0  0  0
 32 78  1  0  0  0  0
 33 39  2  0  0  0  0
 33 79  1  0  0  0  0
 34 40  2  0  0  0  0
 34 80  1  0  0  0  0
 37 39  1  0  0  0  0
 37 83  1  0  0  0  0
 38 40  1  0  0  0  0
 38 84  1  0  0  0  0
 39 85  1  0  0  0  0
 40 86  1  0  0  0  0
 41 87  1  0  0  0  0
 41 88  1  0  0  0  0
 41 89  1  0  0  0  0
 42 90  1  0  0  0  0
 42 91  1  0  0  0  0
 42 92  1  0  0  0  0
 43 44  1  0  0  0  0
 43 45  1  0  0  0  0
 43 95  1  0  0  0  0
 43 96  1  0  0  0  0
 44 46  1  0  0  0  0
 44 97  1  0  0  0  0
 44 98  1  0  0  0  0
M  END
> <PUBCHEM_COMPOUND_CID>
101885474

> <PUBCHEM_COMPOUND_CANONICALIZED>
1

> <PUBCHEM_CACTVS_COMPLEXITY>
902

> <PUBCHEM_CACTVS_HBOND_ACCEPTOR>
6

> <PUBCHEM_CACTVS_HBOND_DONOR>
4

> <PUBCHEM_CACTVS_ROTATABLE_BOND>
21

> <PUBCHEM_CACTVS_SUBSKEYS>
AAADcfB/uAAAAAAAAAAAAAAAAAAAAWLAAAAwYAAAAAAAAFgBQAAAHgAQAAAADAjBmAQywIPAAACIAiVSUACCAAAhAgAIiIEIZIgIIDLA1ZGEIAhglgDIyAcdiICOgAAAQAASAAAAAACAACQAAAAAAAAAAA==

> <PUBCHEM_IUPAC_OPENEYE_NAME>
N,N'-bis[3-[2-(2-oxoindolin-4-yl)ethyl-propyl-amino]propyl]butanediamide

> <PUBCHEM_IUPAC_CAS_NAME>
N,N'-bis[3-[2-(2-oxo-1,3-dihydroindol-4-yl)ethyl-propylamino]propyl]butanediamide

> <PUBCHEM_IUPAC_NAME_MARKUP>
<I>N</I>,<I>N</I>&apos;-bis[3-[2-(2-oxo-1,3-dihydroindol-4-yl)ethyl-propylamino]propyl]butanediamide

> <PUBCHEM_IUPAC_NAME>
N,N'-bis[3-[2-(2-oxo-1,3-dihydroindol-4-yl)ethyl-propylamino]propyl]butanediamide

> <PUBCHEM_IUPAC_SYSTEMATIC_NAME>
N,N'-bis[3-[2-(2-oxidanylidene-1,3-dihydroindol-4-yl)ethyl-propyl-amino]propyl]butanediamide

> <PUBCHEM_IUPAC_TRADITIONAL_NAME>
N,N'-bis[3-[2-(2-ketoindolin-4-yl)ethyl-propyl-amino]propyl]succinamide

> <PUBCHEM_IUPAC_INCHI>
InChI=1S/C36H52N6O4/c1-3-19-41(23-15-27-9-5-11-31-29(27)25-35(45)39-31)21-7-17-37-33(43)13-14-34(44)38-18-8-22-42(20-4-2)24-16-28-10-6-12-32-30(28)26-36(46)40-32/h5-6,9-12H,3-4,7-8,13-26H2,1-2H3,(H,37,43)(H,38,44)(H,39,45)(H,40,46)

> <PUBCHEM_IUPAC_INCHIKEY>
SUQMUSUDBYIFKM-UHFFFAOYSA-N

> <PUBCHEM_XLOGP3_AA>
2.9

> <PUBCHEM_EXACT_MASS>
632.40500416

> <PUBCHEM_MOLECULAR_FORMULA>
C36H52N6O4

> <PUBCHEM_MOLECULAR_WEIGHT>
632.8

> <PUBCHEM_OPENEYE_CAN_SMILES>
CCCN(CCCNC(=O)CCC(=O)NCCCN(CCC)CCC1=C2CC(=O)NC2=CC=C1)CCC3=C4CC(=O)NC4=CC=C3

> <PUBCHEM_OPENEYE_ISO_SMILES>
CCCN(CCCNC(=O)CCC(=O)NCCCN(CCC)CCC1=C2CC(=O)NC2=CC=C1)CCC3=C4CC(=O)NC4=CC=C3

> <PUBCHEM_CACTVS_TPSA>
123

> <PUBCHEM_MONOISOTOPIC_WEIGHT>
632.40500416

> <PUBCHEM_TOTAL_CHARGE>
0

> <PUBCHEM_HEAVY_ATOM_COUNT>
46

> <PUBCHEM_ATOM_DEF_STEREO_COUNT>
0

> <PUBCHEM_ATOM_UDEF_STEREO_COUNT>
0

> <PUBCHEM_BOND_DEF_STEREO_COUNT>
0

> <PUBCHEM_BOND_UDEF_STEREO_COUNT>
0

> <PUBCHEM_ISOTOPIC_ATOM_COUNT>
0

> <PUBCHEM_COMPONENT_COUNT>
1

> <PUBCHEM_CACTVS_TAUTO_COUNT>
-1

> <PUBCHEM_COORDINATE_TYPE>
1
5
255

> <PUBCHEM_BONDANNOTATIONS>
19  21  8
19  33  8
20  22  8
20  34  8
21  27  8
22  28  8
27  37  8
28  38  8
33  39  8
34  40  8
37  39  8
38  40  8

$$$$
