118709176
  -OEChem-09292322352D

148155  0     0  0  0  0  0  0999 V2000
   18.3144   -3.7446    0.0000 Cl  0  0  0  0  0  0  0  0  0  0  0  0
   12.9282   10.2087    0.0000 Cl  0  0  0  0  0  0  0  0  0  0  0  0
   14.5824  -16.2087    0.0000 F   0  0  0  0  0  0  0  0  0  0  0  0
    2.0000   16.2087    0.0000 F   0  0  0  0  0  0  0  0  0  0  0  0
   15.8144   -6.3426    0.0000 O   0  0  0  0  0  0  0  0  0  0  0  0
    9.4282    9.3426    0.0000 O   0  0  0  0  0  0  0  0  0  0  0  0
   14.3144   -7.2086    0.0000 O   0  0  0  0  0  0  0  0  0  0  0  0
    7.9282    8.4766    0.0000 O   0  0  0  0  0  0  0  0  0  0  0  0
   13.7164  -11.7087    0.0000 O   0  0  0  0  0  0  0  0  0  0  0  0
    6.3301   14.7087    0.0000 O   0  0  0  0  0  0  0  0  0  0  0  0
   16.3144   -9.2086    0.0000 N   0  0  0  0  0  0  0  0  0  0  0  0
    7.1962   11.2087    0.0000 N   0  0  0  0  0  0  0  0  0  0  0  0
   12.4780   -3.0279    0.0000 N   0  0  0  0  0  0  0  0  0  0  0  0
    9.7646    4.2958    0.0000 N   0  0  0  0  0  0  0  0  0  0  0  0
   11.8199   -4.5060    0.0000 N   0  0  0  0  0  0  0  0  0  0  0  0
   10.4227    5.7740    0.0000 N   0  0  0  0  0  0  0  0  0  0  0  0
   11.6120   -3.5279    0.0000 N   0  0  0  0  0  0  0  0  0  0  0  0
   10.6306    4.7958    0.0000 N   0  0  0  0  0  0  0  0  0  0  0  0
   16.3144   -7.2086    0.0000 C   0  0  0  0  0  0  0  0  0  0  0  0
    8.9282   10.2087    0.0000 C   0  0  0  0  0  0  0  0  0  0  0  0
   17.1805   -7.7086    0.0000 C   0  0  0  0  0  0  0  0  0  0  0  0
   15.4484   -7.7086    0.0000 C   0  0  0  0  0  0  0  0  0  0  0  0
    8.0622    9.7086    0.0000 C   0  0  0  0  0  0  0  0  0  0  0  0
    8.9282   11.2087    0.0000 C   0  0  0  0  0  0  0  0  0  0  0  0
   17.1805   -8.7086    0.0000 C   0  0  0  0  0  0  0  0  0  0  0  0
   15.4484   -8.7086    0.0000 C   0  0  0  0  0  0  0  0  0  0  0  0
    7.1962   10.2087    0.0000 C   0  0  0  0  0  0  0  0  0  0  0  0
    8.0622   11.7087    0.0000 C   0  0  0  0  0  0  0  0  0  0  0  0
   16.8144   -6.3426    0.0000 C   0  0  0  0  0  0  0  0  0  0  0  0
    9.9282   10.2087    0.0000 C   0  0  0  0  0  0  0  0  0  0  0  0
   16.3144  -10.2087    0.0000 C   0  0  0  0  0  0  0  0  0  0  0  0
    6.3301   11.7087    0.0000 C   0  0  0  0  0  0  0  0  0  0  0  0
   15.4484  -10.7087    0.0000 C   0  0  0  0  0  0  0  0  0  0  0  0
    6.3301   12.7087    0.0000 C   0  0  0  0  0  0  0  0  0  0  0  0
   16.3144   -5.4766    0.0000 C   0  0  0  0  0  0  0  0  0  0  0  0
   10.4282    9.3426    0.0000 C   0  0  0  0  0  0  0  0  0  0  0  0
   17.8144   -6.3426    0.0000 C   0  0  0  0  0  0  0  0  0  0  0  0
   10.4282   11.0747    0.0000 C   0  0  0  0  0  0  0  0  0  0  0  0
   14.8144   -6.3426    0.0000 C   0  0  0  0  0  0  0  0  0  0  0  0
    8.9282    8.4766    0.0000 C   0  0  0  0  0  0  0  0  0  0  0  0
   15.4484  -11.7087    0.0000 C   0  0  0  0  0  0  0  0  0  0  0  0
    5.4641   13.2087    0.0000 C   0  0  0  0  0  0  0  0  0  0  0  0
   16.8144   -4.6106    0.0000 C   0  0  0  0  0  0  0  0  0  0  0  0
   11.4282    9.3426    0.0000 C   0  0  0  0  0  0  0  0  0  0  0  0
   18.3144   -5.4766    0.0000 C   0  0  0  0  0  0  0  0  0  0  0  0
   11.4282   11.0747    0.0000 C   0  0  0  0  0  0  0  0  0  0  0  0
   14.3144   -5.4766    0.0000 C   0  0  0  0  0  0  0  0  0  0  0  0
    9.4282    7.6106    0.0000 C   0  0  0  0  0  0  0  0  0  0  0  0
   17.8144   -4.6106    0.0000 C   0  0  0  0  0  0  0  0  0  0  0  0
   11.9282   10.2087    0.0000 C   0  0  0  0  0  0  0  0  0  0  0  0
   14.5824  -12.2087    0.0000 C   0  0  0  0  0  0  0  0  0  0  0  0
    5.4641   14.2087    0.0000 C   0  0  0  0  0  0  0  0  0  0  0  0
   13.3144   -5.4766    0.0000 C   0  0  0  0  0  0  0  0  0  0  0  0
    8.9282    6.7446    0.0000 C   0  0  0  0  0  0  0  0  0  0  0  0
   14.5824  -13.2087    0.0000 C   0  0  0  0  0  0  0  0  0  0  0  0
    4.5981   14.7087    0.0000 C   0  0  0  0  0  0  0  0  0  0  0  0
   12.8144   -4.6106    0.0000 C   0  0  0  0  0  0  0  0  0  0  0  0
    9.4282    5.8785    0.0000 C   0  0  0  0  0  0  0  0  0  0  0  0
   13.2212   -3.6970    0.0000 C   0  0  0  0  0  0  0  0  0  0  0  0
    9.0215    4.9650    0.0000 C   0  0  0  0  0  0  0  0  0  0  0  0
   15.4484  -13.7087    0.0000 C   0  0  0  0  0  0  0  0  0  0  0  0
    4.5981   15.7087    0.0000 C   0  0  0  0  0  0  0  0  0  0  0  0
   13.7164  -13.7087    0.0000 C   0  0  0  0  0  0  0  0  0  0  0  0
    3.7320   14.2087    0.0000 C   0  0  0  0  0  0  0  0  0  0  0  0
   12.5826   -2.0334    0.0000 C   0  0  0  0  0  0  0  0  0  0  0  0
    9.6601    3.3013    0.0000 C   0  0  0  0  0  0  0  0  0  0  0  0
   11.7735   -1.4456    0.0000 C   0  0  0  0  0  0  0  0  0  0  0  0
   10.4691    2.7135    0.0000 C   0  0  0  0  0  0  0  0  0  0  0  0
   11.8781   -0.4511    0.0000 C   0  0  0  0  0  0  0  0  0  0  0  0
   10.3646    1.7190    0.0000 C   0  0  0  0  0  0  0  0  0  0  0  0
   11.0691    0.1367    0.0000 C   0  0  0  0  0  0  0  0  0  0  0  0
   11.1736    1.1312    0.0000 C   0  0  0  0  0  0  0  0  0  0  0  0
   15.4484  -14.7087    0.0000 C   0  0  0  0  0  0  0  0  0  0  0  0
    3.7320   16.2087    0.0000 C   0  0  0  0  0  0  0  0  0  0  0  0
   13.7164  -14.7087    0.0000 C   0  0  0  0  0  0  0  0  0  0  0  0
    2.8660   14.7087    0.0000 C   0  0  0  0  0  0  0  0  0  0  0  0
   14.5824  -15.2087    0.0000 C   0  0  0  0  0  0  0  0  0  0  0  0
    2.8660   15.7087    0.0000 C   0  0  0  0  0  0  0  0  0  0  0  0
   17.7911   -7.8163    0.0000 H   0  0  0  0  0  0  0  0  0  0  0  0
   17.3925   -7.1260    0.0000 H   0  0  0  0  0  0  0  0  0  0  0  0
   15.2364   -7.1260    0.0000 H   0  0  0  0  0  0  0  0  0  0  0  0
   14.8378   -7.8163    0.0000 H   0  0  0  0  0  0  0  0  0  0  0  0
    7.6636    9.2337    0.0000 H   0  0  0  0  0  0  0  0  0  0  0  0
    8.4607    9.2337    0.0000 H   0  0  0  0  0  0  0  0  0  0  0  0
    9.5388   11.1010    0.0000 H   0  0  0  0  0  0  0  0  0  0  0  0
    9.1403   11.7913    0.0000 H   0  0  0  0  0  0  0  0  0  0  0  0
   17.3925   -9.2913    0.0000 H   0  0  0  0  0  0  0  0  0  0  0  0
   17.7911   -8.6010    0.0000 H   0  0  0  0  0  0  0  0  0  0  0  0
   14.8378   -8.6010    0.0000 H   0  0  0  0  0  0  0  0  0  0  0  0
   15.2364   -9.2913    0.0000 H   0  0  0  0  0  0  0  0  0  0  0  0
    6.5856   10.3163    0.0000 H   0  0  0  0  0  0  0  0  0  0  0  0
    6.9841    9.6260    0.0000 H   0  0  0  0  0  0  0  0  0  0  0  0
    8.4607   12.1836    0.0000 H   0  0  0  0  0  0  0  0  0  0  0  0
    7.6636   12.1836    0.0000 H   0  0  0  0  0  0  0  0  0  0  0  0
   16.5265  -10.7913    0.0000 H   0  0  0  0  0  0  0  0  0  0  0  0
   16.9250  -10.1010    0.0000 H   0  0  0  0  0  0  0  0  0  0  0  0
    5.7196   11.8163    0.0000 H   0  0  0  0  0  0  0  0  0  0  0  0
    6.1181   11.1260    0.0000 H   0  0  0  0  0  0  0  0  0  0  0  0
   15.2364  -10.1260    0.0000 H   0  0  0  0  0  0  0  0  0  0  0  0
   14.8378  -10.8163    0.0000 H   0  0  0  0  0  0  0  0  0  0  0  0
    6.9407   12.6010    0.0000 H   0  0  0  0  0  0  0  0  0  0  0  0
    6.5422   13.2913    0.0000 H   0  0  0  0  0  0  0  0  0  0  0  0
   15.6944   -5.4766    0.0000 H   0  0  0  0  0  0  0  0  0  0  0  0
   10.1182    8.8057    0.0000 H   0  0  0  0  0  0  0  0  0  0  0  0
   18.1244   -6.8796    0.0000 H   0  0  0  0  0  0  0  0  0  0  0  0
   10.1182   11.6116    0.0000 H   0  0  0  0  0  0  0  0  0  0  0  0
   15.6605  -12.2913    0.0000 H   0  0  0  0  0  0  0  0  0  0  0  0
   16.0590  -11.6010    0.0000 H   0  0  0  0  0  0  0  0  0  0  0  0
    4.8535   13.3163    0.0000 H   0  0  0  0  0  0  0  0  0  0  0  0
    5.2520   12.6260    0.0000 H   0  0  0  0  0  0  0  0  0  0  0  0
   16.5044   -4.0736    0.0000 H   0  0  0  0  0  0  0  0  0  0  0  0
   11.7382    8.8057    0.0000 H   0  0  0  0  0  0  0  0  0  0  0  0
   18.9344   -5.4766    0.0000 H   0  0  0  0  0  0  0  0  0  0  0  0
   11.7382   11.6116    0.0000 H   0  0  0  0  0  0  0  0  0  0  0  0
   14.8971   -5.2646    0.0000 H   0  0  0  0  0  0  0  0  0  0  0  0
   14.2068   -4.8660    0.0000 H   0  0  0  0  0  0  0  0  0  0  0  0
    9.9032    7.2120    0.0000 H   0  0  0  0  0  0  0  0  0  0  0  0
    9.9032    8.0091    0.0000 H   0  0  0  0  0  0  0  0  0  0  0  0
   12.7318   -5.6886    0.0000 H   0  0  0  0  0  0  0  0  0  0  0  0
   13.4221   -6.0872    0.0000 H   0  0  0  0  0  0  0  0  0  0  0  0
    8.4533    7.1431    0.0000 H   0  0  0  0  0  0  0  0  0  0  0  0
    8.4533    6.3460    0.0000 H   0  0  0  0  0  0  0  0  0  0  0  0
   13.8276   -3.5681    0.0000 H   0  0  0  0  0  0  0  0  0  0  0  0
    8.4150    4.8361    0.0000 H   0  0  0  0  0  0  0  0  0  0  0  0
   15.9854  -13.3987    0.0000 H   0  0  0  0  0  0  0  0  0  0  0  0
    5.1350   16.0187    0.0000 H   0  0  0  0  0  0  0  0  0  0  0  0
   13.1794  -13.3987    0.0000 H   0  0  0  0  0  0  0  0  0  0  0  0
    3.7320   13.5887    0.0000 H   0  0  0  0  0  0  0  0  0  0  0  0
   13.1785   -2.2043    0.0000 H   0  0  0  0  0  0  0  0  0  0  0  0
   12.8544   -1.4761    0.0000 H   0  0  0  0  0  0  0  0  0  0  0  0
    9.0641    3.4722    0.0000 H   0  0  0  0  0  0  0  0  0  0  0  0
    9.3883    2.7441    0.0000 H   0  0  0  0  0  0  0  0  0  0  0  0
   11.1776   -1.2747    0.0000 H   0  0  0  0  0  0  0  0  0  0  0  0
   11.5018   -2.0028    0.0000 H   0  0  0  0  0  0  0  0  0  0  0  0
   11.0651    2.5426    0.0000 H   0  0  0  0  0  0  0  0  0  0  0  0
   10.7409    3.2708    0.0000 H   0  0  0  0  0  0  0  0  0  0  0  0
   12.4741   -0.6220    0.0000 H   0  0  0  0  0  0  0  0  0  0  0  0
   12.1499    0.1062    0.0000 H   0  0  0  0  0  0  0  0  0  0  0  0
    9.7686    1.8899    0.0000 H   0  0  0  0  0  0  0  0  0  0  0  0
   10.0928    1.1618    0.0000 H   0  0  0  0  0  0  0  0  0  0  0  0
   10.4731    0.3076    0.0000 H   0  0  0  0  0  0  0  0  0  0  0  0
   10.7973   -0.4205    0.0000 H   0  0  0  0  0  0  0  0  0  0  0  0
   11.7696    0.9603    0.0000 H   0  0  0  0  0  0  0  0  0  0  0  0
   11.4454    1.6885    0.0000 H   0  0  0  0  0  0  0  0  0  0  0  0
   15.9854  -15.0187    0.0000 H   0  0  0  0  0  0  0  0  0  0  0  0
    3.7320   16.8287    0.0000 H   0  0  0  0  0  0  0  0  0  0  0  0
   13.1794  -15.0187    0.0000 H   0  0  0  0  0  0  0  0  0  0  0  0
    2.3291   14.3987    0.0000 H   0  0  0  0  0  0  0  0  0  0  0  0
  1 49  1  0  0  0  0
  2 50  1  0  0  0  0
  3 77  1  0  0  0  0
  4 78  1  0  0  0  0
  5 19  1  0  0  0  0
  5 39  1  0  0  0  0
  6 20  1  0  0  0  0
  6 40  1  0  0  0  0
  7 39  2  0  0  0  0
  8 40  2  0  0  0  0
  9 51  2  0  0  0  0
 10 52  2  0  0  0  0
 11 25  1  0  0  0  0
 11 26  1  0  0  0  0
 11 31  1  0  0  0  0
 12 27  1  0  0  0  0
 12 28  1  0  0  0  0
 12 32  1  0  0  0  0
 13 17  1  0  0  0  0
 13 59  1  0  0  0  0
 13 65  1  0  0  0  0
 14 18  1  0  0  0  0
 14 60  1  0  0  0  0
 14 66  1  0  0  0  0
 15 17  2  0  0  0  0
 15 57  1  0  0  0  0
 16 18  2  0  0  0  0
 16 58  1  0  0  0  0
 19 21  1  0  0  0  0
 19 22  1  0  0  0  0
 19 29  1  0  0  0  0
 20 23  1  0  0  0  0
 20 24  1  0  0  0  0
 20 30  1  0  0  0  0
 21 25  1  0  0  0  0
 21 79  1  0  0  0  0
 21 80  1  0  0  0  0
 22 26  1  0  0  0  0
 22 81  1  0  0  0  0
 22 82  1  0  0  0  0
 23 27  1  0  0  0  0
 23 83  1  0  0  0  0
 23 84  1  0  0  0  0
 24 28  1  0  0  0  0
 24 85  1  0  0  0  0
 24 86  1  0  0  0  0
 25 87  1  0  0  0  0
 25 88  1  0  0  0  0
 26 89  1  0  0  0  0
 26 90  1  0  0  0  0
 27 91  1  0  0  0  0
 27 92  1  0  0  0  0
 28 93  1  0  0  0  0
 28 94  1  0  0  0  0
 29 35  2  0  0  0  0
 29 37  1  0  0  0  0
 30 36  2  0  0  0  0
 30 38  1  0  0  0  0
 31 33  1  0  0  0  0
 31 95  1  0  0  0  0
 31 96  1  0  0  0  0
 32 34  1  0  0  0  0
 32 97  1  0  0  0  0
 32 98  1  0  0  0  0
 33 41  1  0  0  0  0
 33 99  1  0  0  0  0
 33100  1  0  0  0  0
 34 42  1  0  0  0  0
 34101  1  0  0  0  0
 34102  1  0  0  0  0
 35 43  1  0  0  0  0
 35103  1  0  0  0  0
 36 44  1  0  0  0  0
 36104  1  0  0  0  0
 37 45  2  0  0  0  0
 37105  1  0  0  0  0
 38 46  2  0  0  0  0
 38106  1  0  0  0  0
 39 47  1  0  0  0  0
 40 48  1  0  0  0  0
 41 51  1  0  0  0  0
 41107  1  0  0  0  0
 41108  1  0  0  0  0
 42 52  1  0  0  0  0
 42109  1  0  0  0  0
 42110  1  0  0  0  0
 43 49  2  0  0  0  0
 43111  1  0  0  0  0
 44 50  2  0  0  0  0
 44112  1  0  0  0  0
 45 49  1  0  0  0  0
 45113  1  0  0  0  0
 46 50  1  0  0  0  0
 46114  1  0  0  0  0
 47 53  1  0  0  0  0
 47115  1  0  0  0  0
 47116  1  0  0  0  0
 48 54  1  0  0  0  0
 48117  1  0  0  0  0
 48118  1  0  0  0  0
 51 55  1  0  0  0  0
 52 56  1  0  0  0  0
 53 57  1  0  0  0  0
 53119  1  0  0  0  0
 53120  1  0  0  0  0
 54 58  1  0  0  0  0
 54121  1  0  0  0  0
 54122  1  0  0  0  0
 55 61  2  0  0  0  0
 55 63  1  0  0  0  0
 56 62  2  0  0  0  0
 56 64  1  0  0  0  0
 57 59  2  0  0  0  0
 58 60  2  0  0  0  0
 59123  1  0  0  0  0
 60124  1  0  0  0  0
 61 73  1  0  0  0  0
 61125  1  0  0  0  0
 62 74  1  0  0  0  0
 62126  1  0  0  0  0
 63 75  2  0  0  0  0
 63127  1  0  0  0  0
 64 76  2  0  0  0  0
 64128  1  0  0  0  0
 65 67  1  0  0  0  0
 65129  1  0  0  0  0
 65130  1  0  0  0  0
 66 68  1  0  0  0  0
 66131  1  0  0  0  0
 66132  1  0  0  0  0
 67 69  1  0  0  0  0
 67133  1  0  0  0  0
 67134  1  0  0  0  0
 68 70  1  0  0  0  0
 68135  1  0  0  0  0
 68136  1  0  0  0  0
 69 71  1  0  0  0  0
 69137  1  0  0  0  0
 69138  1  0  0  0  0
 70 72  1  0  0  0  0
 70139  1  0  0  0  0
 70140  1  0  0  0  0
 71 72  1  0  0  0  0
 71141  1  0  0  0  0
 71142  1  0  0  0  0
 72143  1  0  0  0  0
 72144  1  0  0  0  0
 73 77  2  0  0  0  0
 73145  1  0  0  0  0
 74 78  2  0  0  0  0
 74146  1  0  0  0  0
 75 77  1  0  0  0  0
 75147  1  0  0  0  0
 76 78  1  0  0  0  0
 76148  1  0  0  0  0
M  END
> <PUBCHEM_COMPOUND_CID>
118709176

> <PUBCHEM_COMPOUND_CANONICALIZED>
1

> <PUBCHEM_CACTVS_COMPLEXITY>
1690

> <PUBCHEM_CACTVS_HBOND_ACCEPTOR>
14

> <PUBCHEM_CACTVS_HBOND_DONOR>
0

> <PUBCHEM_CACTVS_ROTATABLE_BOND>
31

> <PUBCHEM_CACTVS_SUBSKEYS>
AAADcfB/+YAGAAAAAAAAAAAAAAAAAWLAAAA8eMGCAAAAAAAB9AAAHwIIAAAADE7Bniw8iJMIBACqA7T3TAACBAQ1lwAY2AE4esgIZjLBtxiWMQAmwAHI6Ye82eKOhAAAAAAAAAAIAAAAAAAAAAAAAAAAAA==

> <PUBCHEM_IUPAC_OPENEYE_NAME>
[4-(4-chlorophenyl)-1-[4-(4-fluorophenyl)-4-oxo-butyl]-4-piperidyl] 3-[1-[8-[4-[3-[[4-(4-chlorophenyl)-1-[4-(4-fluorophenyl)-4-oxo-butyl]-4-piperidyl]oxy]-3-oxo-propyl]triazol-1-yl]octyl]triazol-4-yl]propanoate

> <PUBCHEM_IUPAC_CAS_NAME>
3-[1-[8-[4-[3-[[4-(4-chlorophenyl)-1-[4-(4-fluorophenyl)-4-oxobutyl]-4-piperidinyl]oxy]-3-oxopropyl]-1-triazolyl]octyl]-4-triazolyl]propanoic acid [4-(4-chlorophenyl)-1-[4-(4-fluorophenyl)-4-oxobutyl]-4-piperidinyl] ester

> <PUBCHEM_IUPAC_NAME_MARKUP>
[4-(4-chlorophenyl)-1-[4-(4-fluorophenyl)-4-oxobutyl]piperidin-4-yl] 3-[1-[8-[4-[3-[4-(4-chlorophenyl)-1-[4-(4-fluorophenyl)-4-oxobutyl]piperidin-4-yl]oxy-3-oxopropyl]triazol-1-yl]octyl]triazol-4-yl]propanoate

> <PUBCHEM_IUPAC_NAME>
[4-(4-chlorophenyl)-1-[4-(4-fluorophenyl)-4-oxobutyl]piperidin-4-yl] 3-[1-[8-[4-[3-[4-(4-chlorophenyl)-1-[4-(4-fluorophenyl)-4-oxobutyl]piperidin-4-yl]oxy-3-oxopropyl]triazol-1-yl]octyl]triazol-4-yl]propanoate

> <PUBCHEM_IUPAC_SYSTEMATIC_NAME>
[4-(4-chlorophenyl)-1-[4-(4-fluorophenyl)-4-oxidanylidene-butyl]piperidin-4-yl] 3-[1-[8-[4-[3-[4-(4-chlorophenyl)-1-[4-(4-fluorophenyl)-4-oxidanylidene-butyl]piperidin-4-yl]oxy-3-oxidanylidene-propyl]-1,2,3-triazol-1-yl]octyl]-1,2,3-triazol-4-yl]propanoate

> <PUBCHEM_IUPAC_TRADITIONAL_NAME>
3-[1-[8-[4-[3-[[4-(4-chlorophenyl)-1-[4-(4-fluorophenyl)-4-keto-butyl]-4-piperidyl]oxy]-3-keto-propyl]triazol-1-yl]octyl]triazol-4-yl]propionic acid [4-(4-chlorophenyl)-1-[4-(4-fluorophenyl)-4-keto-butyl]-4-piperidyl] ester

> <PUBCHEM_IUPAC_INCHI>
InChI=1S/C60H70Cl2F2N8O6/c61-49-19-15-47(16-20-49)59(31-39-69(40-32-59)35-7-9-55(73)45-11-23-51(63)24-12-45)77-57(75)29-27-53-43-71(67-65-53)37-5-3-1-2-4-6-38-72-44-54(66-68-72)28-30-58(76)78-60(48-17-21-50(62)22-18-48)33-41-70(42-34-60)36-8-10-56(74)46-13-25-52(64)26-14-46/h11-26,43-44H,1-10,27-42H2

> <PUBCHEM_IUPAC_INCHIKEY>
WUVVNDIQBGLCOQ-UHFFFAOYSA-N

> <PUBCHEM_XLOGP3_AA>
10.3

> <PUBCHEM_EXACT_MASS>
1106.4763437

> <PUBCHEM_MOLECULAR_FORMULA>
C60H70Cl2F2N8O6

> <PUBCHEM_MOLECULAR_WEIGHT>
1108.1

> <PUBCHEM_OPENEYE_CAN_SMILES>
C1CN(CCC1(C2=CC=C(C=C2)Cl)OC(=O)CCC3=CN(N=N3)CCCCCCCCN4C=C(N=N4)CCC(=O)OC5(CCN(CC5)CCCC(=O)C6=CC=C(C=C6)F)C7=CC=C(C=C7)Cl)CCCC(=O)C8=CC=C(C=C8)F

> <PUBCHEM_OPENEYE_ISO_SMILES>
C1CN(CCC1(C2=CC=C(C=C2)Cl)OC(=O)CCC3=CN(N=N3)CCCCCCCCN4C=C(N=N4)CCC(=O)OC5(CCN(CC5)CCCC(=O)C6=CC=C(C=C6)F)C7=CC=C(C=C7)Cl)CCCC(=O)C8=CC=C(C=C8)F

> <PUBCHEM_CACTVS_TPSA>
155

> <PUBCHEM_MONOISOTOPIC_WEIGHT>
1106.4763437

> <PUBCHEM_TOTAL_CHARGE>
0

> <PUBCHEM_HEAVY_ATOM_COUNT>
78

> <PUBCHEM_ATOM_DEF_STEREO_COUNT>
0

> <PUBCHEM_ATOM_UDEF_STEREO_COUNT>
0

> <PUBCHEM_BOND_DEF_STEREO_COUNT>
0

> <PUBCHEM_BOND_UDEF_STEREO_COUNT>
0

> <PUBCHEM_ISOTOPIC_ATOM_COUNT>
0

> <PUBCHEM_COMPONENT_COUNT>
1

> <PUBCHEM_CACTVS_TAUTO_COUNT>
-1

> <PUBCHEM_COORDINATE_TYPE>
1
5
255

> <PUBCHEM_BONDANNOTATIONS>
13  17  8
13  59  8
14  18  8
14  60  8
15  17  8
15  57  8
16  18  8
16  58  8
29  35  8
29  37  8
30  36  8
30  38  8
35  43  8
36  44  8
37  45  8
38  46  8
43  49  8
44  50  8
45  49  8
46  50  8
55  61  8
55  63  8
56  62  8
56  64  8
57  59  8
58  60  8
61  73  8
62  74  8
63  75  8
64  76  8
73  77  8
74  78  8
75  77  8
76  78  8

$$$$
