146025783
  -OEChem-09292322012D

 58 60  0     1  0  0  0  0  0999 V2000
    4.0000   -0.7436    0.0000 F   0  0  0  0  0  0  0  0  0  0  0  0
    3.0000   -1.7436    0.0000 F   0  0  0  0  0  0  0  0  0  0  0  0
    2.0000   -0.7436    0.0000 F   0  0  0  0  0  0  0  0  0  0  0  0
   11.7262    0.2122    0.0000 O   0  0  0  0  0  0  0  0  0  0  0  0
    5.6660    0.7356    0.0000 N   0  0  3  0  0  0  0  0  0  0  0  0
   10.8544   -1.2844    0.0000 N   0  0  0  0  0  0  0  0  0  0  0  0
   12.5865   -1.2911    0.0000 N   0  0  0  0  0  0  0  0  0  0  0  0
    8.2622    0.2256    0.0000 C   0  0  0  0  0  0  0  0  0  0  0  0
    9.1301    0.7223    0.0000 C   0  0  0  0  0  0  0  0  0  0  0  0
    8.2583   -0.7744    0.0000 C   0  0  0  0  0  0  0  0  0  0  0  0
    9.9904   -0.7811    0.0000 C   0  0  0  0  0  0  0  0  0  0  0  0
    9.9942    0.2189    0.0000 C   0  0  0  0  0  0  0  0  0  0  0  0
    9.1224   -1.2777    0.0000 C   0  0  0  0  0  0  0  0  0  0  0  0
    7.3981    0.7289    0.0000 C   0  0  0  0  0  0  0  0  0  0  0  0
    6.5301    0.2323    0.0000 C   0  0  0  0  0  0  0  0  0  0  0  0
    5.6660    1.7772    0.0000 C   0  0  0  0  0  0  0  0  0  0  0  0
    4.7600    0.2218    0.0000 C   0  0  0  0  0  0  0  0  0  0  0  0
    4.7600    2.2911    0.0000 C   0  0  0  0  0  0  0  0  0  0  0  0
    3.8660    0.7564    0.0000 C   0  0  0  0  0  0  0  0  0  0  0  0
    3.8660    1.7564    0.0000 C   0  0  0  0  0  0  0  0  0  0  0  0
   11.7224   -0.7878    0.0000 C   0  0  0  0  0  0  0  0  0  0  0  0
    3.0000    0.2564    0.0000 C   0  0  0  0  0  0  0  0  0  0  0  0
    3.0000    2.2564    0.0000 C   0  0  0  0  0  0  0  0  0  0  0  0
    2.1340    0.7564    0.0000 C   0  0  0  0  0  0  0  0  0  0  0  0
    2.1340    1.7564    0.0000 C   0  0  0  0  0  0  0  0  0  0  0  0
    3.0000   -0.7436    0.0000 C   0  0  0  0  0  0  0  0  0  0  0  0
   13.4544   -0.7944    0.0000 C   0  0  0  0  0  0  0  0  0  0  0  0
   12.5826   -2.2911    0.0000 C   0  0  0  0  0  0  0  0  0  0  0  0
    8.2646    0.8456    0.0000 H   0  0  0  0  0  0  0  0  0  0  0  0
    9.5305    1.1957    0.0000 H   0  0  0  0  0  0  0  0  0  0  0  0
    8.7334    1.1987    0.0000 H   0  0  0  0  0  0  0  0  0  0  0  0
    7.6482   -0.6644    0.0000 H   0  0  0  0  0  0  0  0  0  0  0  0
    8.0440   -1.3562    0.0000 H   0  0  0  0  0  0  0  0  0  0  0  0
    9.9880   -1.4011    0.0000 H   0  0  0  0  0  0  0  0  0  0  0  0
   10.6044    0.1089    0.0000 H   0  0  0  0  0  0  0  0  0  0  0  0
   10.2085    0.8007    0.0000 H   0  0  0  0  0  0  0  0  0  0  0  0
    8.7220   -1.7511    0.0000 H   0  0  0  0  0  0  0  0  0  0  0  0
    9.5191   -1.7542    0.0000 H   0  0  0  0  0  0  0  0  0  0  0  0
    7.7984    1.2023    0.0000 H   0  0  0  0  0  0  0  0  0  0  0  0
    7.0014    1.2054    0.0000 H   0  0  0  0  0  0  0  0  0  0  0  0
    6.1298   -0.2411    0.0000 H   0  0  0  0  0  0  0  0  0  0  0  0
    6.9268   -0.2442    0.0000 H   0  0  0  0  0  0  0  0  0  0  0  0
   10.8520   -1.9044    0.0000 H   0  0  0  0  0  0  0  0  0  0  0  0
    6.2769    1.6711    0.0000 H   0  0  0  0  0  0  0  0  0  0  0  0
    5.8751    2.3609    0.0000 H   0  0  0  0  0  0  0  0  0  0  0  0
    4.3554   -0.2480    0.0000 H   0  0  0  0  0  0  0  0  0  0  0  0
    5.1536   -0.2573    0.0000 H   0  0  0  0  0  0  0  0  0  0  0  0
    5.1536    2.7701    0.0000 H   0  0  0  0  0  0  0  0  0  0  0  0
    4.3554    2.7609    0.0000 H   0  0  0  0  0  0  0  0  0  0  0  0
    3.0000    2.8764    0.0000 H   0  0  0  0  0  0  0  0  0  0  0  0
    1.5970    0.4464    0.0000 H   0  0  0  0  0  0  0  0  0  0  0  0
    1.5970    2.0664    0.0000 H   0  0  0  0  0  0  0  0  0  0  0  0
   13.7624   -1.3326    0.0000 H   0  0  0  0  0  0  0  0  0  0  0  0
   13.9925   -0.4865    0.0000 H   0  0  0  0  0  0  0  0  0  0  0  0
   13.1465   -0.2563    0.0000 H   0  0  0  0  0  0  0  0  0  0  0  0
   11.9626   -2.2887    0.0000 H   0  0  0  0  0  0  0  0  0  0  0  0
   12.5802   -2.9111    0.0000 H   0  0  0  0  0  0  0  0  0  0  0  0
   13.2026   -2.2935    0.0000 H   0  0  0  0  0  0  0  0  0  0  0  0
  1 26  1  0  0  0  0
  2 26  1  0  0  0  0
  3 26  1  0  0  0  0
  4 21  2  0  0  0  0
  5 15  1  0  0  0  0
  5 16  1  0  0  0  0
  5 17  1  0  0  0  0
  6 11  1  0  0  0  0
  6 21  1  0  0  0  0
  6 43  1  0  0  0  0
  7 21  1  0  0  0  0
  7 27  1  0  0  0  0
  7 28  1  0  0  0  0
  8  9  1  0  0  0  0
  8 10  1  0  0  0  0
  8 14  1  0  0  0  0
  8 29  1  0  0  0  0
  9 12  1  0  0  0  0
  9 30  1  0  0  0  0
  9 31  1  0  0  0  0
 10 13  1  0  0  0  0
 10 32  1  0  0  0  0
 10 33  1  0  0  0  0
 11 12  1  0  0  0  0
 11 13  1  0  0  0  0
 11 34  1  0  0  0  0
 12 35  1  0  0  0  0
 12 36  1  0  0  0  0
 13 37  1  0  0  0  0
 13 38  1  0  0  0  0
 14 15  1  0  0  0  0
 14 39  1  0  0  0  0
 14 40  1  0  0  0  0
 15 41  1  0  0  0  0
 15 42  1  0  0  0  0
 16 18  1  0  0  0  0
 16 44  1  0  0  0  0
 16 45  1  0  0  0  0
 17 19  1  0  0  0  0
 17 46  1  0  0  0  0
 17 47  1  0  0  0  0
 18 20  1  0  0  0  0
 18 48  1  0  0  0  0
 18 49  1  0  0  0  0
 19 20  2  0  0  0  0
 19 22  1  0  0  0  0
 20 23  1  0  0  0  0
 22 24  2  0  0  0  0
 22 26  1  0  0  0  0
 23 25  2  0  0  0  0
 23 50  1  0  0  0  0
 24 25  1  0  0  0  0
 24 51  1  0  0  0  0
 25 52  1  0  0  0  0
 27 53  1  0  0  0  0
 27 54  1  0  0  0  0
 27 55  1  0  0  0  0
 28 56  1  0  0  0  0
 28 57  1  0  0  0  0
 28 58  1  0  0  0  0
M  END
> <PUBCHEM_COMPOUND_CID>
146025783

> <PUBCHEM_COMPOUND_CANONICALIZED>
1

> <PUBCHEM_CACTVS_COMPLEXITY>
518

> <PUBCHEM_CACTVS_HBOND_ACCEPTOR>
5

> <PUBCHEM_CACTVS_HBOND_DONOR>
1

> <PUBCHEM_CACTVS_ROTATABLE_BOND>
4

> <PUBCHEM_CACTVS_SUBSKEYS>
AAADceB7IYAAAAAAAAAAAAAAAAAAAAAAAAA8YIAAAAAAAACxAAAAHwAQAAAADSjBGBQzAIPAAACIAiBCEACCAAAgAAAIiIAIBIiIICKAkRGEIAholgKIiAcQgMAOgAACAAAQAAAQAAQAACAAAAAAAAAAAA==

> <PUBCHEM_IUPAC_OPENEYE_NAME>
1,1-dimethyl-3-[4-[2-[8-(trifluoromethyl)-3,4-dihydro-1H-isoquinolin-2-yl]ethyl]cyclohexyl]urea

> <PUBCHEM_IUPAC_CAS_NAME>
1,1-dimethyl-3-[4-[2-[8-(trifluoromethyl)-3,4-dihydro-1H-isoquinolin-2-yl]ethyl]cyclohexyl]urea

> <PUBCHEM_IUPAC_NAME_MARKUP>
1,1-dimethyl-3-[4-[2-[8-(trifluoromethyl)-3,4-dihydro-1<I>H</I>-isoquinolin-2-yl]ethyl]cyclohexyl]urea

> <PUBCHEM_IUPAC_NAME>
1,1-dimethyl-3-[4-[2-[8-(trifluoromethyl)-3,4-dihydro-1H-isoquinolin-2-yl]ethyl]cyclohexyl]urea

> <PUBCHEM_IUPAC_SYSTEMATIC_NAME>
1,1-dimethyl-3-[4-[2-[8-(trifluoromethyl)-3,4-dihydro-1H-isoquinolin-2-yl]ethyl]cyclohexyl]urea

> <PUBCHEM_IUPAC_TRADITIONAL_NAME>
1,1-dimethyl-3-[4-[2-[8-(trifluoromethyl)-3,4-dihydro-1H-isoquinolin-2-yl]ethyl]cyclohexyl]urea

> <PUBCHEM_IUPAC_INCHI>
InChI=1S/C21H30F3N3O/c1-26(2)20(28)25-17-8-6-15(7-9-17)10-12-27-13-11-16-4-3-5-19(18(16)14-27)21(22,23)24/h3-5,15,17H,6-14H2,1-2H3,(H,25,28)

> <PUBCHEM_IUPAC_INCHIKEY>
KECLJXDGQOFDIE-UHFFFAOYSA-N

> <PUBCHEM_XLOGP3_AA>
3.9

> <PUBCHEM_EXACT_MASS>
397.23409708

> <PUBCHEM_MOLECULAR_FORMULA>
C21H30F3N3O

> <PUBCHEM_MOLECULAR_WEIGHT>
397.5

> <PUBCHEM_OPENEYE_CAN_SMILES>
CN(C)C(=O)NC1CCC(CC1)CCN2CCC3=C(C2)C(=CC=C3)C(F)(F)F

> <PUBCHEM_OPENEYE_ISO_SMILES>
CN(C)C(=O)NC1CCC(CC1)CCN2CCC3=C(C2)C(=CC=C3)C(F)(F)F

> <PUBCHEM_CACTVS_TPSA>
35.6

> <PUBCHEM_MONOISOTOPIC_WEIGHT>
397.23409708

> <PUBCHEM_TOTAL_CHARGE>
0

> <PUBCHEM_HEAVY_ATOM_COUNT>
28

> <PUBCHEM_ATOM_DEF_STEREO_COUNT>
0

> <PUBCHEM_ATOM_UDEF_STEREO_COUNT>
0

> <PUBCHEM_BOND_DEF_STEREO_COUNT>
0

> <PUBCHEM_BOND_UDEF_STEREO_COUNT>
0

> <PUBCHEM_ISOTOPIC_ATOM_COUNT>
0

> <PUBCHEM_COMPONENT_COUNT>
1

> <PUBCHEM_CACTVS_TAUTO_COUNT>
-1

> <PUBCHEM_COORDINATE_TYPE>
1
5
255

> <PUBCHEM_BONDANNOTATIONS>
19  20  8
19  22  8
20  23  8
22  24  8
23  25  8
24  25  8

$$$$
