90643433
  -OEChem-09292322472D

191191  0     1  0  0  0  0  0999 V2000
   19.8574    3.0406    0.0000 S   0  0  0  0  0  0  0  0  0  0  0  0
   24.1876    2.5406    0.0000 O   0  0  0  0  0  0  0  0  0  0  0  0
   25.8248    4.9885    0.0000 O   0  0  0  0  0  0  0  0  0  0  0  0
   25.2895    3.3412    0.0000 O   0  0  0  0  0  0  0  0  0  0  0  0
   20.7235    1.5406    0.0000 O   0  0  0  0  0  0  0  0  0  0  0  0
   19.8574    1.0406    0.0000 O   0  0  0  0  0  0  0  0  0  0  0  0
   17.2594   -1.4594    0.0000 O   0  0  0  0  0  0  0  0  0  0  0  0
   14.6613    1.0406    0.0000 O   0  0  0  0  0  0  0  0  0  0  0  0
   12.0632   -1.4594    0.0000 O   0  0  0  0  0  0  0  0  0  0  0  0
    9.4651    1.0406    0.0000 O   0  0  0  0  0  0  0  0  0  0  0  0
    6.8671   -1.4594    0.0000 O   0  0  0  0  0  0  0  0  0  0  0  0
   16.3933    3.0406    0.0000 O   0  0  0  0  0  0  0  0  0  0  0  0
    4.2690    1.0406    0.0000 O   0  0  0  0  0  0  0  0  0  0  0  0
    6.0010    3.0406    0.0000 O   0  0  0  0  0  0  0  0  0  0  0  0
   23.3215    4.0406    0.0000 N   0  0  0  0  0  0  0  0  0  0  0  0
   22.4555    1.5406    0.0000 N   0  0  0  0  0  0  0  0  0  0  0  0
   20.7235   -0.4594    0.0000 N   0  0  0  0  0  0  0  0  0  0  0  0
   18.1254    0.0406    0.0000 N   0  0  0  0  0  0  0  0  0  0  0  0
   15.5273   -0.4594    0.0000 N   0  0  0  0  0  0  0  0  0  0  0  0
   12.9292    0.0406    0.0000 N   0  0  0  0  0  0  0  0  0  0  0  0
   10.3312   -0.4594    0.0000 N   0  0  0  0  0  0  0  0  0  0  0  0
    7.7331    0.0406    0.0000 N   0  0  0  0  0  0  0  0  0  0  0  0
   17.2594   -4.4594    0.0000 N   0  0  0  0  0  0  0  0  0  0  0  0
    5.1350   -0.4594    0.0000 N   0  0  0  0  0  0  0  0  0  0  0  0
   12.0632   -3.4594    0.0000 N   0  0  0  0  0  0  0  0  0  0  0  0
    9.4651    4.0406    0.0000 N   0  0  0  0  0  0  0  0  0  0  0  0
   14.6613    3.0406    0.0000 N   0  0  0  0  0  0  0  0  0  0  0  0
    2.5369    0.0406    0.0000 N   0  0  0  0  0  0  0  0  0  0  0  0
    6.8671   -3.4594    0.0000 N   0  0  0  0  0  0  0  0  0  0  0  0
    4.2690    3.0406    0.0000 N   0  0  0  0  0  0  0  0  0  0  0  0
   11.1972   -4.9594    0.0000 N   0  0  0  0  0  0  0  0  0  0  0  0
   12.9292   -4.9594    0.0000 N   0  0  0  0  0  0  0  0  0  0  0  0
    6.0010   -4.9594    0.0000 N   0  0  0  0  0  0  0  0  0  0  0  0
    7.7331   -4.9594    0.0000 N   0  0  0  0  0  0  0  0  0  0  0  0
   24.1306    4.6284    0.0000 C   0  0  1  0  0  0  0  0  0  0  0  0
   23.8215    5.5794    0.0000 C   0  0  0  0  0  0  0  0  0  0  0  0
   22.8215    5.5794    0.0000 C   0  0  0  0  0  0  0  0  0  0  0  0
   22.5125    4.6284    0.0000 C   0  0  0  0  0  0  0  0  0  0  0  0
   23.3215    3.0406    0.0000 C   0  0  0  0  0  0  0  0  0  0  0  0
   22.4555    2.5406    0.0000 C   0  0  2  0  0  0  0  0  0  0  0  0
   25.0816    4.3194    0.0000 C   0  0  0  0  0  0  0  0  0  0  0  0
   21.5895    3.0406    0.0000 C   0  0  0  0  0  0  0  0  0  0  0  0
   21.5895    0.0406    0.0000 C   0  0  2  0  0  0  0  0  0  0  0  0
   21.5895    1.0406    0.0000 C   0  0  0  0  0  0  0  0  0  0  0  0
   22.4555   -0.4594    0.0000 C   0  0  0  0  0  0  0  0  0  0  0  0
   20.7235    2.5406    0.0000 C   0  0  0  0  0  0  0  0  0  0  0  0
   22.4555   -1.4594    0.0000 C   0  0  0  0  0  0  0  0  0  0  0  0
   18.9914   -0.4594    0.0000 C   0  0  2  0  0  0  0  0  0  0  0  0
   19.8574    0.0406    0.0000 C   0  0  0  0  0  0  0  0  0  0  0  0
   18.9914   -1.4594    0.0000 C   0  0  0  0  0  0  0  0  0  0  0  0
   23.3215   -1.9594    0.0000 C   0  0  0  0  0  0  0  0  0  0  0  0
   21.5895   -1.9594    0.0000 C   0  0  0  0  0  0  0  0  0  0  0  0
   18.1254   -1.9594    0.0000 C   0  0  0  0  0  0  0  0  0  0  0  0
   16.3933    0.0406    0.0000 C   0  0  2  0  0  0  0  0  0  0  0  0
   17.2594   -0.4594    0.0000 C   0  0  0  0  0  0  0  0  0  0  0  0
   18.1254   -2.9594    0.0000 C   0  0  0  0  0  0  0  0  0  0  0  0
   13.7953   -0.4594    0.0000 C   0  0  1  0  0  0  0  0  0  0  0  0
   11.1972    0.0406    0.0000 C   0  0  1  0  0  0  0  0  0  0  0  0
   16.3933    1.0406    0.0000 C   0  0  0  0  0  0  0  0  0  0  0  0
   18.9914    2.5406    0.0000 C   0  0  0  0  0  0  0  0  0  0  0  0
   11.1972    1.0406    0.0000 C   0  0  0  0  0  0  0  0  0  0  0  0
   13.7953   -1.4594    0.0000 C   0  0  0  0  0  0  0  0  0  0  0  0
   14.6613    0.0406    0.0000 C   0  0  0  0  0  0  0  0  0  0  0  0
    8.5991   -0.4594    0.0000 C   0  0  1  0  0  0  0  0  0  0  0  0
   12.0632   -0.4594    0.0000 C   0  0  0  0  0  0  0  0  0  0  0  0
   10.3312    1.5406    0.0000 C   0  0  0  0  0  0  0  0  0  0  0  0
   17.2594   -3.4594    0.0000 C   0  0  0  0  0  0  0  0  0  0  0  0
   15.5273    1.5406    0.0000 C   0  0  0  0  0  0  0  0  0  0  0  0
   12.9292   -1.9594    0.0000 C   0  0  0  0  0  0  0  0  0  0  0  0
    8.5991   -1.4594    0.0000 C   0  0  0  0  0  0  0  0  0  0  0  0
    9.4651    0.0406    0.0000 C   0  0  0  0  0  0  0  0  0  0  0  0
   10.3312    2.5406    0.0000 C   0  0  0  0  0  0  0  0  0  0  0  0
    6.0010    0.0406    0.0000 C   0  0  2  0  0  0  0  0  0  0  0  0
    7.7331   -1.9594    0.0000 C   0  0  0  0  0  0  0  0  0  0  0  0
    6.8671   -0.4594    0.0000 C   0  0  0  0  0  0  0  0  0  0  0  0
   12.9292   -2.9594    0.0000 C   0  0  0  0  0  0  0  0  0  0  0  0
    6.0010    1.0406    0.0000 C   0  0  0  0  0  0  0  0  0  0  0  0
    9.4651    3.0406    0.0000 C   0  0  0  0  0  0  0  0  0  0  0  0
   15.5273    2.5406    0.0000 C   0  0  0  0  0  0  0  0  0  0  0  0
    3.4030   -0.4594    0.0000 C   0  0  1  0  0  0  0  0  0  0  0  0
    7.7331   -2.9594    0.0000 C   0  0  0  0  0  0  0  0  0  0  0  0
    3.4030   -1.4594    0.0000 C   0  0  0  0  0  0  0  0  0  0  0  0
    5.1350    1.5406    0.0000 C   0  0  0  0  0  0  0  0  0  0  0  0
    4.2690    0.0406    0.0000 C   0  0  0  0  0  0  0  0  0  0  0  0
    2.5369   -1.9594    0.0000 C   0  0  0  0  0  0  0  0  0  0  0  0
    4.2690   -1.9594    0.0000 C   0  0  0  0  0  0  0  0  0  0  0  0
    5.1350    2.5406    0.0000 C   0  0  0  0  0  0  0  0  0  0  0  0
   12.0632   -4.4594    0.0000 C   0  0  0  0  0  0  0  0  0  0  0  0
    6.8671   -4.4594    0.0000 C   0  0  0  0  0  0  0  0  0  0  0  0
   24.2276    4.0160    0.0000 H   0  0  0  0  0  0  0  0  0  0  0  0
   24.4280    5.7083    0.0000 H   0  0  0  0  0  0  0  0  0  0  0  0
   23.7567    6.1960    0.0000 H   0  0  0  0  0  0  0  0  0  0  0  0
   22.8864    6.1960    0.0000 H   0  0  0  0  0  0  0  0  0  0  0  0
   22.2151    5.7083    0.0000 H   0  0  0  0  0  0  0  0  0  0  0  0
   21.9461    4.8805    0.0000 H   0  0  0  0  0  0  0  0  0  0  0  0
   22.2025    4.0914    0.0000 H   0  0  0  0  0  0  0  0  0  0  0  0
   22.9925    2.2306    0.0000 H   0  0  0  0  0  0  0  0  0  0  0  0
   21.9880    3.5155    0.0000 H   0  0  0  0  0  0  0  0  0  0  0  0
   21.1910    3.5155    0.0000 H   0  0  0  0  0  0  0  0  0  0  0  0
   22.9925    1.2306    0.0000 H   0  0  0  0  0  0  0  0  0  0  0  0
   21.5895   -0.5794    0.0000 H   0  0  0  0  0  0  0  0  0  0  0  0
   23.0661   -0.5671    0.0000 H   0  0  0  0  0  0  0  0  0  0  0  0
   22.6676    0.1232    0.0000 H   0  0  0  0  0  0  0  0  0  0  0  0
   20.3249    2.0656    0.0000 H   0  0  0  0  0  0  0  0  0  0  0  0
   21.1220    2.0656    0.0000 H   0  0  0  0  0  0  0  0  0  0  0  0
   22.9925   -1.1494    0.0000 H   0  0  0  0  0  0  0  0  0  0  0  0
   20.7235   -1.0794    0.0000 H   0  0  0  0  0  0  0  0  0  0  0  0
   26.4144    4.7969    0.0000 H   0  0  0  0  0  0  0  0  0  0  0  0
   18.9914    0.1606    0.0000 H   0  0  0  0  0  0  0  0  0  0  0  0
   19.2035   -2.0420    0.0000 H   0  0  0  0  0  0  0  0  0  0  0  0
   19.6020   -1.3518    0.0000 H   0  0  0  0  0  0  0  0  0  0  0  0
   23.0115   -2.4964    0.0000 H   0  0  0  0  0  0  0  0  0  0  0  0
   23.8585   -2.2694    0.0000 H   0  0  0  0  0  0  0  0  0  0  0  0
   23.6315   -1.4225    0.0000 H   0  0  0  0  0  0  0  0  0  0  0  0
   21.2795   -1.4225    0.0000 H   0  0  0  0  0  0  0  0  0  0  0  0
   21.0526   -2.2694    0.0000 H   0  0  0  0  0  0  0  0  0  0  0  0
   21.8995   -2.4964    0.0000 H   0  0  0  0  0  0  0  0  0  0  0  0
   17.9133   -1.3768    0.0000 H   0  0  0  0  0  0  0  0  0  0  0  0
   17.5148   -2.0671    0.0000 H   0  0  0  0  0  0  0  0  0  0  0  0
   18.1254    0.6606    0.0000 H   0  0  0  0  0  0  0  0  0  0  0  0
   15.8564    0.3506    0.0000 H   0  0  0  0  0  0  0  0  0  0  0  0
   18.3374   -3.5420    0.0000 H   0  0  0  0  0  0  0  0  0  0  0  0
   18.7360   -2.8518    0.0000 H   0  0  0  0  0  0  0  0  0  0  0  0
   13.7953    0.1606    0.0000 H   0  0  0  0  0  0  0  0  0  0  0  0
   10.6603    0.3506    0.0000 H   0  0  0  0  0  0  0  0  0  0  0  0
   17.0039    0.9329    0.0000 H   0  0  0  0  0  0  0  0  0  0  0  0
   16.6054    1.6232    0.0000 H   0  0  0  0  0  0  0  0  0  0  0  0
   11.8078    0.9329    0.0000 H   0  0  0  0  0  0  0  0  0  0  0  0
   11.4092    1.6232    0.0000 H   0  0  0  0  0  0  0  0  0  0  0  0
   18.6814    3.0775    0.0000 H   0  0  0  0  0  0  0  0  0  0  0  0
   18.4545    2.2306    0.0000 H   0  0  0  0  0  0  0  0  0  0  0  0
   19.3014    2.0036    0.0000 H   0  0  0  0  0  0  0  0  0  0  0  0
   15.5273   -1.0794    0.0000 H   0  0  0  0  0  0  0  0  0  0  0  0
   14.0073   -2.0420    0.0000 H   0  0  0  0  0  0  0  0  0  0  0  0
   14.4058   -1.3518    0.0000 H   0  0  0  0  0  0  0  0  0  0  0  0
    8.5991    0.1606    0.0000 H   0  0  0  0  0  0  0  0  0  0  0  0
   12.9292    0.6606    0.0000 H   0  0  0  0  0  0  0  0  0  0  0  0
    9.7206    1.6482    0.0000 H   0  0  0  0  0  0  0  0  0  0  0  0
   10.1191    0.9580    0.0000 H   0  0  0  0  0  0  0  0  0  0  0  0
   17.0473   -2.8768    0.0000 H   0  0  0  0  0  0  0  0  0  0  0  0
   16.6488   -3.5671    0.0000 H   0  0  0  0  0  0  0  0  0  0  0  0
   10.3312   -1.0794    0.0000 H   0  0  0  0  0  0  0  0  0  0  0  0
   14.9167    1.6482    0.0000 H   0  0  0  0  0  0  0  0  0  0  0  0
   15.3153    0.9580    0.0000 H   0  0  0  0  0  0  0  0  0  0  0  0
   12.7172   -1.3768    0.0000 H   0  0  0  0  0  0  0  0  0  0  0  0
   12.3187   -2.0671    0.0000 H   0  0  0  0  0  0  0  0  0  0  0  0
    8.8112   -2.0420    0.0000 H   0  0  0  0  0  0  0  0  0  0  0  0
    9.2097   -1.3518    0.0000 H   0  0  0  0  0  0  0  0  0  0  0  0
   10.9417    2.4329    0.0000 H   0  0  0  0  0  0  0  0  0  0  0  0
   10.5432    3.1232    0.0000 H   0  0  0  0  0  0  0  0  0  0  0  0
    5.4641    0.3506    0.0000 H   0  0  0  0  0  0  0  0  0  0  0  0
    7.7331    0.6606    0.0000 H   0  0  0  0  0  0  0  0  0  0  0  0
    7.5210   -1.3768    0.0000 H   0  0  0  0  0  0  0  0  0  0  0  0
    7.1225   -2.0671    0.0000 H   0  0  0  0  0  0  0  0  0  0  0  0
   13.1413   -3.5420    0.0000 H   0  0  0  0  0  0  0  0  0  0  0  0
   13.5398   -2.8518    0.0000 H   0  0  0  0  0  0  0  0  0  0  0  0
    6.6116    0.9329    0.0000 H   0  0  0  0  0  0  0  0  0  0  0  0
    6.2131    1.6232    0.0000 H   0  0  0  0  0  0  0  0  0  0  0  0
    8.8546    3.1482    0.0000 H   0  0  0  0  0  0  0  0  0  0  0  0
    9.2531    2.4580    0.0000 H   0  0  0  0  0  0  0  0  0  0  0  0
   16.7224   -4.7694    0.0000 H   0  0  0  0  0  0  0  0  0  0  0  0
   17.7963   -4.7694    0.0000 H   0  0  0  0  0  0  0  0  0  0  0  0
    5.1350   -1.0794    0.0000 H   0  0  0  0  0  0  0  0  0  0  0  0
    3.4030    0.1606    0.0000 H   0  0  0  0  0  0  0  0  0  0  0  0
    7.9451   -3.5420    0.0000 H   0  0  0  0  0  0  0  0  0  0  0  0
    8.3437   -2.8518    0.0000 H   0  0  0  0  0  0  0  0  0  0  0  0
    3.4030   -2.0794    0.0000 H   0  0  0  0  0  0  0  0  0  0  0  0
    4.5244    1.6482    0.0000 H   0  0  0  0  0  0  0  0  0  0  0  0
    4.9230    0.9580    0.0000 H   0  0  0  0  0  0  0  0  0  0  0  0
    8.9282    4.3506    0.0000 H   0  0  0  0  0  0  0  0  0  0  0  0
   10.0021    4.3506    0.0000 H   0  0  0  0  0  0  0  0  0  0  0  0
    2.2269   -1.4225    0.0000 H   0  0  0  0  0  0  0  0  0  0  0  0
    2.0000   -2.2694    0.0000 H   0  0  0  0  0  0  0  0  0  0  0  0
    2.8469   -2.4964    0.0000 H   0  0  0  0  0  0  0  0  0  0  0  0
    3.9590   -2.4964    0.0000 H   0  0  0  0  0  0  0  0  0  0  0  0
    4.8059   -2.2694    0.0000 H   0  0  0  0  0  0  0  0  0  0  0  0
    4.5790   -1.4225    0.0000 H   0  0  0  0  0  0  0  0  0  0  0  0
   14.6613    3.6606    0.0000 H   0  0  0  0  0  0  0  0  0  0  0  0
   14.1244    2.7306    0.0000 H   0  0  0  0  0  0  0  0  0  0  0  0
    2.0000   -0.2694    0.0000 H   0  0  0  0  0  0  0  0  0  0  0  0
    2.5369    0.6606    0.0000 H   0  0  0  0  0  0  0  0  0  0  0  0
    4.2690    3.6606    0.0000 H   0  0  0  0  0  0  0  0  0  0  0  0
    3.7320    2.7306    0.0000 H   0  0  0  0  0  0  0  0  0  0  0  0
   11.1972   -5.5794    0.0000 H   0  0  0  0  0  0  0  0  0  0  0  0
   10.6603   -4.6494    0.0000 H   0  0  0  0  0  0  0  0  0  0  0  0
   12.9292   -5.5794    0.0000 H   0  0  0  0  0  0  0  0  0  0  0  0
   13.4662   -4.6494    0.0000 H   0  0  0  0  0  0  0  0  0  0  0  0
    6.0010   -5.5794    0.0000 H   0  0  0  0  0  0  0  0  0  0  0  0
    5.4641   -4.6494    0.0000 H   0  0  0  0  0  0  0  0  0  0  0  0
    7.7331   -5.5794    0.0000 H   0  0  0  0  0  0  0  0  0  0  0  0
    8.2700   -4.6494    0.0000 H   0  0  0  0  0  0  0  0  0  0  0  0
  1 46  1  0  0  0  0
  1 60  1  0  0  0  0
  2 39  2  0  0  0  0
  3 41  1  0  0  0  0
  3108  1  0  0  0  0
  4 41  2  0  0  0  0
  5 44  2  0  0  0  0
  6 49  2  0  0  0  0
  7 55  2  0  0  0  0
  8 63  2  0  0  0  0
  9 65  2  0  0  0  0
 10 71  2  0  0  0  0
 11 75  2  0  0  0  0
 12 79  2  0  0  0  0
 13 84  2  0  0  0  0
 14 87  2  0  0  0  0
 15 35  1  0  0  0  0
 15 38  1  0  0  0  0
 15 39  1  0  0  0  0
 40 16  1  1  0  0  0
 16 44  1  0  0  0  0
 16100  1  0  0  0  0
 43 17  1  6  0  0  0
 17 49  1  0  0  0  0
 17107  1  0  0  0  0
 48 18  1  6  0  0  0
 18 55  1  0  0  0  0
 18120  1  0  0  0  0
 54 19  1  1  0  0  0
 19 63  1  0  0  0  0
 19133  1  0  0  0  0
 57 20  1  6  0  0  0
 20 65  1  0  0  0  0
 20137  1  0  0  0  0
 58 21  1  1  0  0  0
 21 71  1  0  0  0  0
 21142  1  0  0  0  0
 64 22  1  6  0  0  0
 22 75  1  0  0  0  0
 22152  1  0  0  0  0
 23 67  1  0  0  0  0
 23161  1  0  0  0  0
 23162  1  0  0  0  0
 73 24  1  1  0  0  0
 24 84  1  0  0  0  0
 24163  1  0  0  0  0
 25 76  1  0  0  0  0
 25 88  2  0  0  0  0
 26 78  1  0  0  0  0
 26170  1  0  0  0  0
 26171  1  0  0  0  0
 27 79  1  0  0  0  0
 27178  1  0  0  0  0
 27179  1  0  0  0  0
 80 28  1  6  0  0  0
 28180  1  0  0  0  0
 28181  1  0  0  0  0
 29 81  1  0  0  0  0
 29 89  2  0  0  0  0
 30 87  1  0  0  0  0
 30182  1  0  0  0  0
 30183  1  0  0  0  0
 31 88  1  0  0  0  0
 31184  1  0  0  0  0
 31185  1  0  0  0  0
 32 88  1  0  0  0  0
 32186  1  0  0  0  0
 32187  1  0  0  0  0
 33 89  1  0  0  0  0
 33188  1  0  0  0  0
 33189  1  0  0  0  0
 34 89  1  0  0  0  0
 34190  1  0  0  0  0
 34191  1  0  0  0  0
 35 36  1  0  0  0  0
 35 41  1  1  0  0  0
 35 90  1  0  0  0  0
 36 37  1  0  0  0  0
 36 91  1  0  0  0  0
 36 92  1  0  0  0  0
 37 38  1  0  0  0  0
 37 93  1  0  0  0  0
 37 94  1  0  0  0  0
 38 95  1  0  0  0  0
 38 96  1  0  0  0  0
 39 40  1  0  0  0  0
 40 42  1  0  0  0  0
 40 97  1  0  0  0  0
 42 46  1  0  0  0  0
 42 98  1  0  0  0  0
 42 99  1  0  0  0  0
 43 44  1  0  0  0  0
 43 45  1  0  0  0  0
 43101  1  0  0  0  0
 45 47  1  0  0  0  0
 45102  1  0  0  0  0
 45103  1  0  0  0  0
 46104  1  0  0  0  0
 46105  1  0  0  0  0
 47 51  1  0  0  0  0
 47 52  1  0  0  0  0
 47106  1  0  0  0  0
 48 49  1  0  0  0  0
 48 50  1  0  0  0  0
 48109  1  0  0  0  0
 50 53  1  0  0  0  0
 50110  1  0  0  0  0
 50111  1  0  0  0  0
 51112  1  0  0  0  0
 51113  1  0  0  0  0
 51114  1  0  0  0  0
 52115  1  0  0  0  0
 52116  1  0  0  0  0
 52117  1  0  0  0  0
 53 56  1  0  0  0  0
 53118  1  0  0  0  0
 53119  1  0  0  0  0
 54 55  1  0  0  0  0
 54 59  1  0  0  0  0
 54121  1  0  0  0  0
 56 67  1  0  0  0  0
 56122  1  0  0  0  0
 56123  1  0  0  0  0
 57 62  1  0  0  0  0
 57 63  1  0  0  0  0
 57124  1  0  0  0  0
 58 61  1  0  0  0  0
 58 65  1  0  0  0  0
 58125  1  0  0  0  0
 59 68  1  0  0  0  0
 59126  1  0  0  0  0
 59127  1  0  0  0  0
 60130  1  0  0  0  0
 60131  1  0  0  0  0
 60132  1  0  0  0  0
 61 66  1  0  0  0  0
 61128  1  0  0  0  0
 61129  1  0  0  0  0
 62 69  1  0  0  0  0
 62134  1  0  0  0  0
 62135  1  0  0  0  0
 64 70  1  0  0  0  0
 64 71  1  0  0  0  0
 64136  1  0  0  0  0
 66 72  1  0  0  0  0
 66138  1  0  0  0  0
 66139  1  0  0  0  0
 67140  1  0  0  0  0
 67141  1  0  0  0  0
 68 79  1  0  0  0  0
 68143  1  0  0  0  0
 68144  1  0  0  0  0
 69 76  1  0  0  0  0
 69145  1  0  0  0  0
 69146  1  0  0  0  0
 70 74  1  0  0  0  0
 70147  1  0  0  0  0
 70148  1  0  0  0  0
 72 78  1  0  0  0  0
 72149  1  0  0  0  0
 72150  1  0  0  0  0
 73 75  1  0  0  0  0
 73 77  1  0  0  0  0
 73151  1  0  0  0  0
 74 81  1  0  0  0  0
 74153  1  0  0  0  0
 74154  1  0  0  0  0
 76155  1  0  0  0  0
 76156  1  0  0  0  0
 77 83  1  0  0  0  0
 77157  1  0  0  0  0
 77158  1  0  0  0  0
 78159  1  0  0  0  0
 78160  1  0  0  0  0
 80 82  1  0  0  0  0
 80 84  1  0  0  0  0
 80164  1  0  0  0  0
 81165  1  0  0  0  0
 81166  1  0  0  0  0
 82 85  1  0  0  0  0
 82 86  1  0  0  0  0
 82167  1  0  0  0  0
 83 87  1  0  0  0  0
 83168  1  0  0  0  0
 83169  1  0  0  0  0
 85172  1  0  0  0  0
 85173  1  0  0  0  0
 85174  1  0  0  0  0
 86175  1  0  0  0  0
 86176  1  0  0  0  0
 86177  1  0  0  0  0
M  END
> <PUBCHEM_COMPOUND_CID>
90643433

> <PUBCHEM_COMPOUND_CANONICALIZED>
1

> <PUBCHEM_CACTVS_COMPLEXITY>
2390

> <PUBCHEM_CACTVS_HBOND_ACCEPTOR>
19

> <PUBCHEM_CACTVS_HBOND_DONOR>
18

> <PUBCHEM_CACTVS_ROTATABLE_BOND>
46

> <PUBCHEM_CACTVS_SUBSKEYS>
AAADcfB//ABAAAAAAAAAAAAAAAAAAWAAAAAAAAAAAAAAAAAAAAAAHgQQCAAADSjFwASDCAPAAggoAAGQPAAAAAEAABAAAIGIAAACQBIggCAUQAAEFgCQAAGcGwIMAAAAAAAAAAAAAAAAAAAAAAAAAAAAAA==

> <PUBCHEM_IUPAC_OPENEYE_NAME>
(2S)-1-[(2S)-2-[[(2S)-2-[[(2S)-6-amino-2-[[(2S)-5-amino-2-[[(2S)-2-[[(2S)-6-amino-2-[[(2S)-2-[[(2S)-5-amino-2-[[(2S)-2-amino-3-methyl-butanoyl]amino]-5-oxo-pentanoyl]amino]-5-guanidino-pentanoyl]amino]hexanoyl]amino]-5-guanidino-pentanoyl]amino]-5-oxo-pentanoyl]amino]hexanoyl]amino]-4-methyl-pentanoyl]amino]-4-methylsulfanyl-butanoyl]pyrrolidine-2-carboxylic acid

> <PUBCHEM_IUPAC_CAS_NAME>
(2S)-1-[(2S)-2-[[(2S)-2-[[(2S)-6-amino-2-[[(2S)-5-amino-2-[[(2S)-2-[[(2S)-6-amino-2-[[(2S)-2-[[(2S)-5-amino-2-[[(2S)-2-amino-3-methyl-1-oxobutyl]amino]-1,5-dioxopentyl]amino]-5-(diaminomethylideneamino)-1-oxopentyl]amino]-1-oxohexyl]amino]-5-(diaminomethylideneamino)-1-oxopentyl]amino]-1,5-dioxopentyl]amino]-1-oxohexyl]amino]-4-methyl-1-oxopentyl]amino]-4-(methylthio)-1-oxobutyl]-2-pyrrolidinecarboxylic acid

> <PUBCHEM_IUPAC_NAME_MARKUP>
(2<I>S</I>)-1-[(2<I>S</I>)-2-[[(2<I>S</I>)-2-[[(2<I>S</I>)-6-amino-2-[[(2<I>S</I>)-5-amino-2-[[(2<I>S</I>)-2-[[(2<I>S</I>)-6-amino-2-[[(2<I>S</I>)-2-[[(2<I>S</I>)-5-amino-2-[[(2<I>S</I>)-2-amino-3-methylbutanoyl]amino]-5-oxopentanoyl]amino]-5-(diaminomethylideneamino)pentanoyl]amino]hexanoyl]amino]-5-(diaminomethylideneamino)pentanoyl]amino]-5-oxopentanoyl]amino]hexanoyl]amino]-4-methylpentanoyl]amino]-4-methylsulfanylbutanoyl]pyrrolidine-2-carboxylic acid

> <PUBCHEM_IUPAC_NAME>
(2S)-1-[(2S)-2-[[(2S)-2-[[(2S)-6-amino-2-[[(2S)-5-amino-2-[[(2S)-2-[[(2S)-6-amino-2-[[(2S)-2-[[(2S)-5-amino-2-[[(2S)-2-amino-3-methylbutanoyl]amino]-5-oxopentanoyl]amino]-5-(diaminomethylideneamino)pentanoyl]amino]hexanoyl]amino]-5-(diaminomethylideneamino)pentanoyl]amino]-5-oxopentanoyl]amino]hexanoyl]amino]-4-methylpentanoyl]amino]-4-methylsulfanylbutanoyl]pyrrolidine-2-carboxylic acid

> <PUBCHEM_IUPAC_SYSTEMATIC_NAME>
(2S)-1-[(2S)-2-[[(2S)-2-[[(2S)-6-azanyl-2-[[(2S)-5-azanyl-2-[[(2S)-2-[[(2S)-6-azanyl-2-[[(2S)-2-[[(2S)-5-azanyl-2-[[(2S)-2-azanyl-3-methyl-butanoyl]amino]-5-oxidanylidene-pentanoyl]amino]-5-[bis(azanyl)methylideneamino]pentanoyl]amino]hexanoyl]amino]-5-[bis(azanyl)methylideneamino]pentanoyl]amino]-5-oxidanylidene-pentanoyl]amino]hexanoyl]amino]-4-methyl-pentanoyl]amino]-4-methylsulfanyl-butanoyl]pyrrolidine-2-carboxylic acid

> <PUBCHEM_IUPAC_TRADITIONAL_NAME>
(2S)-1-[(2S)-2-[[(2S)-2-[[(2S)-6-amino-2-[[(2S)-5-amino-2-[[(2S)-2-[[(2S)-6-amino-2-[[(2S)-2-[[(2S)-5-amino-2-[[(2S)-2-amino-3-methyl-butanoyl]amino]-5-keto-pentanoyl]amino]-5-guanidino-pentanoyl]amino]hexanoyl]amino]-5-guanidino-pentanoyl]amino]-5-keto-pentanoyl]amino]hexanoyl]amino]-4-methyl-pentanoyl]amino]-4-(methylthio)butanoyl]proline

> <PUBCHEM_IUPAC_INCHI>
InChI=1S/C55H102N20O13S/c1-30(2)29-39(50(84)73-38(22-28-89-5)52(86)75-27-12-17-40(75)53(87)88)74-47(81)33(14-7-9-24-57)68-48(82)36(18-20-41(58)76)71-46(80)35(16-11-26-66-55(63)64)69-44(78)32(13-6-8-23-56)67-45(79)34(15-10-25-65-54(61)62)70-49(83)37(19-21-42(59)77)72-51(85)43(60)31(3)4/h30-40,43H,6-29,56-57,60H2,1-5H3,(H2,58,76)(H2,59,77)(H,67,79)(H,68,82)(H,69,78)(H,70,83)(H,71,80)(H,72,85)(H,73,84)(H,74,81)(H,87,88)(H4,61,62,65)(H4,63,64,66)/t32-,33-,34-,35-,36-,37-,38-,39-,40-,43-/m0/s1

> <PUBCHEM_IUPAC_INCHIKEY>
RTNFTLGNKNLZQF-IHHWSYFASA-N

> <PUBCHEM_XLOGP3>
-8.9

> <PUBCHEM_EXACT_MASS>
1282.76559456

> <PUBCHEM_MOLECULAR_FORMULA>
C55H102N20O13S

> <PUBCHEM_MOLECULAR_WEIGHT>
1283.6

> <PUBCHEM_OPENEYE_CAN_SMILES>
CC(C)CC(C(=O)NC(CCSC)C(=O)N1CCCC1C(=O)O)NC(=O)C(CCCCN)NC(=O)C(CCC(=O)N)NC(=O)C(CCCN=C(N)N)NC(=O)C(CCCCN)NC(=O)C(CCCN=C(N)N)NC(=O)C(CCC(=O)N)NC(=O)C(C(C)C)N

> <PUBCHEM_OPENEYE_ISO_SMILES>
CC(C)C[C@@H](C(=O)N[C@@H](CCSC)C(=O)N1CCC[C@H]1C(=O)O)NC(=O)[C@H](CCCCN)NC(=O)[C@H](CCC(=O)N)NC(=O)[C@H](CCCN=C(N)N)NC(=O)[C@H](CCCCN)NC(=O)[C@H](CCCN=C(N)N)NC(=O)[C@H](CCC(=O)N)NC(=O)[C@H](C(C)C)N

> <PUBCHEM_CACTVS_TPSA>
609

> <PUBCHEM_MONOISOTOPIC_WEIGHT>
1282.76559456

> <PUBCHEM_TOTAL_CHARGE>
0

> <PUBCHEM_HEAVY_ATOM_COUNT>
89

> <PUBCHEM_ATOM_DEF_STEREO_COUNT>
10

> <PUBCHEM_ATOM_UDEF_STEREO_COUNT>
0

> <PUBCHEM_BOND_DEF_STEREO_COUNT>
0

> <PUBCHEM_BOND_UDEF_STEREO_COUNT>
0

> <PUBCHEM_ISOTOPIC_ATOM_COUNT>
0

> <PUBCHEM_COMPONENT_COUNT>
1

> <PUBCHEM_CACTVS_TAUTO_COUNT>
-1

> <PUBCHEM_COORDINATE_TYPE>
1
5
255

> <PUBCHEM_BONDANNOTATIONS>
40  16  5
43  17  6
48  18  6
54  19  5
57  20  6
58  21  5
64  22  6
73  24  5
80  28  6
35  41  5

$$$$
