22403110
  -OEChem-09292322202D

 51 53  0     1  0  0  0  0  0999 V2000
    6.3301   -3.1853    0.0000 S   0  0  0  0  0  0  0  0  0  0  0  0
    2.8660   -1.1853    0.0000 O   0  0  0  0  0  0  0  0  0  0  0  0
    5.8301   -4.0513    0.0000 O   0  0  0  0  0  0  0  0  0  0  0  0
    6.8301   -2.3193    0.0000 O   0  0  0  0  0  0  0  0  0  0  0  0
    3.9170    3.0761    0.0000 N   0  0  0  0  0  0  0  0  0  0  0  0
    3.7891    0.4025    0.0000 N   0  0  0  0  0  0  0  0  0  0  0  0
    4.8952    3.2840    0.0000 C   0  0  0  0  0  0  0  0  0  0  0  0
    3.4170    3.9421    0.0000 C   0  0  0  0  0  0  0  0  0  0  0  0
    3.5103    2.1626    0.0000 C   0  0  3  0  0  0  0  0  0  0  0  0
    4.9997    4.2786    0.0000 C   0  0  0  0  0  0  0  0  0  0  0  0
    4.0862    4.6853    0.0000 C   0  0  0  0  0  0  0  0  0  0  0  0
    4.0981    1.3536    0.0000 C   0  0  0  0  0  0  0  0  0  0  0  0
    2.5158    2.0580    0.0000 C   0  0  0  0  0  0  0  0  0  0  0  0
    5.0981    1.3536    0.0000 C   0  0  0  0  0  0  0  0  0  0  0  0
    4.5981   -0.1853    0.0000 C   0  0  0  0  0  0  0  0  0  0  0  0
    5.4071    0.4025    0.0000 C   0  0  0  0  0  0  0  0  0  0  0  0
    4.5981   -1.1853    0.0000 C   0  0  0  0  0  0  0  0  0  0  0  0
    5.4641   -1.6853    0.0000 C   0  0  0  0  0  0  0  0  0  0  0  0
    5.4641   -2.6853    0.0000 C   0  0  0  0  0  0  0  0  0  0  0  0
    3.7320   -1.6853    0.0000 C   0  0  0  0  0  0  0  0  0  0  0  0
    4.5981   -3.1853    0.0000 C   0  0  0  0  0  0  0  0  0  0  0  0
    3.7320   -2.6853    0.0000 C   0  0  0  0  0  0  0  0  0  0  0  0
    7.1962   -3.6853    0.0000 C   0  0  0  0  0  0  0  0  0  0  0  0
    7.1962   -4.6853    0.0000 C   0  0  0  0  0  0  0  0  0  0  0  0
    2.0000   -1.6853    0.0000 C   0  0  0  0  0  0  0  0  0  0  0  0
    4.9600    2.6674    0.0000 H   0  0  0  0  0  0  0  0  0  0  0  0
    5.5152    3.2840    0.0000 H   0  0  0  0  0  0  0  0  0  0  0  0
    3.0022    4.4029    0.0000 H   0  0  0  0  0  0  0  0  0  0  0  0
    2.9154    3.5777    0.0000 H   0  0  0  0  0  0  0  0  0  0  0  0
    3.1459    2.6642    0.0000 H   0  0  0  0  0  0  0  0  0  0  0  0
    5.6062    4.1496    0.0000 H   0  0  0  0  0  0  0  0  0  0  0  0
    5.1913    4.8682    0.0000 H   0  0  0  0  0  0  0  0  0  0  0  0
    4.3962    5.2222    0.0000 H   0  0  0  0  0  0  0  0  0  0  0  0
    3.5846    5.0497    0.0000 H   0  0  0  0  0  0  0  0  0  0  0  0
    2.4510    2.6747    0.0000 H   0  0  0  0  0  0  0  0  0  0  0  0
    1.8992    1.9932    0.0000 H   0  0  0  0  0  0  0  0  0  0  0  0
    2.5806    1.4414    0.0000 H   0  0  0  0  0  0  0  0  0  0  0  0
    3.1994    0.2109    0.0000 H   0  0  0  0  0  0  0  0  0  0  0  0
    5.4625    1.8551    0.0000 H   0  0  0  0  0  0  0  0  0  0  0  0
    5.9967    0.2109    0.0000 H   0  0  0  0  0  0  0  0  0  0  0  0
    6.0010   -1.3753    0.0000 H   0  0  0  0  0  0  0  0  0  0  0  0
    4.5981   -3.8053    0.0000 H   0  0  0  0  0  0  0  0  0  0  0  0
    3.1951   -2.9953    0.0000 H   0  0  0  0  0  0  0  0  0  0  0  0
    7.8067   -3.7930    0.0000 H   0  0  0  0  0  0  0  0  0  0  0  0
    7.4082   -3.1027    0.0000 H   0  0  0  0  0  0  0  0  0  0  0  0
    6.5762   -4.6853    0.0000 H   0  0  0  0  0  0  0  0  0  0  0  0
    7.1962   -5.3053    0.0000 H   0  0  0  0  0  0  0  0  0  0  0  0
    7.8162   -4.6853    0.0000 H   0  0  0  0  0  0  0  0  0  0  0  0
    1.6900   -1.1484    0.0000 H   0  0  0  0  0  0  0  0  0  0  0  0
    1.4631   -1.9953    0.0000 H   0  0  0  0  0  0  0  0  0  0  0  0
    2.3100   -2.2222    0.0000 H   0  0  0  0  0  0  0  0  0  0  0  0
  1  3  2  0  0  0  0
  1  4  2  0  0  0  0
  1 19  1  0  0  0  0
  1 23  1  0  0  0  0
  2 20  1  0  0  0  0
  2 25  1  0  0  0  0
  5  7  1  0  0  0  0
  5  8  1  0  0  0  0
  5  9  1  0  0  0  0
  6 12  1  0  0  0  0
  6 15  1  0  0  0  0
  6 38  1  0  0  0  0
  7 10  1  0  0  0  0
  7 26  1  0  0  0  0
  7 27  1  0  0  0  0
  8 11  1  0  0  0  0
  8 28  1  0  0  0  0
  8 29  1  0  0  0  0
  9 12  1  0  0  0  0
  9 13  1  0  0  0  0
  9 30  1  0  0  0  0
 10 11  1  0  0  0  0
 10 31  1  0  0  0  0
 10 32  1  0  0  0  0
 11 33  1  0  0  0  0
 11 34  1  0  0  0  0
 12 14  2  0  0  0  0
 13 35  1  0  0  0  0
 13 36  1  0  0  0  0
 13 37  1  0  0  0  0
 14 16  1  0  0  0  0
 14 39  1  0  0  0  0
 15 16  2  0  0  0  0
 15 17  1  0  0  0  0
 16 40  1  0  0  0  0
 17 18  1  0  0  0  0
 17 20  2  0  0  0  0
 18 19  2  0  0  0  0
 18 41  1  0  0  0  0
 19 21  1  0  0  0  0
 20 22  1  0  0  0  0
 21 22  2  0  0  0  0
 21 42  1  0  0  0  0
 22 43  1  0  0  0  0
 23 24  1  0  0  0  0
 23 44  1  0  0  0  0
 23 45  1  0  0  0  0
 24 46  1  0  0  0  0
 24 47  1  0  0  0  0
 24 48  1  0  0  0  0
 25 49  1  0  0  0  0
 25 50  1  0  0  0  0
 25 51  1  0  0  0  0
M  END
> <PUBCHEM_COMPOUND_CID>
22403110

> <PUBCHEM_COMPOUND_CANONICALIZED>
1

> <PUBCHEM_CACTVS_COMPLEXITY>
527

> <PUBCHEM_CACTVS_HBOND_ACCEPTOR>
4

> <PUBCHEM_CACTVS_HBOND_DONOR>
1

> <PUBCHEM_CACTVS_ROTATABLE_BOND>
6

> <PUBCHEM_CACTVS_SUBSKEYS>
AAADceB7MABAAAAAAAAAAAAAAAAAAWLAAAAwAAAAAAAAAAABwAAAHgQQAAAADCzF3gayh5PJlAqgAyRiRHDCiCAhKjAImTg+bJgMZuLksZuUMChm0BHo6AeQwOAOAIAAgAAIAAABAAEAABAAAAAAAAAAAA==

> <PUBCHEM_IUPAC_OPENEYE_NAME>
2-(5-ethylsulfonyl-2-methoxy-phenyl)-5-(1-pyrrolidin-1-ylethyl)-1H-pyrrole

> <PUBCHEM_IUPAC_CAS_NAME>
2-(5-ethylsulfonyl-2-methoxyphenyl)-5-[1-(1-pyrrolidinyl)ethyl]-1H-pyrrole

> <PUBCHEM_IUPAC_NAME_MARKUP>
2-(5-ethylsulfonyl-2-methoxyphenyl)-5-(1-pyrrolidin-1-ylethyl)-1<I>H</I>-pyrrole

> <PUBCHEM_IUPAC_NAME>
2-(5-ethylsulfonyl-2-methoxyphenyl)-5-(1-pyrrolidin-1-ylethyl)-1H-pyrrole

> <PUBCHEM_IUPAC_SYSTEMATIC_NAME>
2-(5-ethylsulfonyl-2-methoxy-phenyl)-5-(1-pyrrolidin-1-ylethyl)-1H-pyrrole

> <PUBCHEM_IUPAC_TRADITIONAL_NAME>
2-(5-esyl-2-methoxy-phenyl)-5-(1-pyrrolidinoethyl)-1H-pyrrole

> <PUBCHEM_IUPAC_INCHI>
InChI=1S/C19H26N2O3S/c1-4-25(22,23)15-7-10-19(24-3)16(13-15)18-9-8-17(20-18)14(2)21-11-5-6-12-21/h7-10,13-14,20H,4-6,11-12H2,1-3H3

> <PUBCHEM_IUPAC_INCHIKEY>
BRDXGAAIKJJGNB-UHFFFAOYSA-N

> <PUBCHEM_XLOGP3_AA>
2.7

> <PUBCHEM_EXACT_MASS>
362.16641387

> <PUBCHEM_MOLECULAR_FORMULA>
C19H26N2O3S

> <PUBCHEM_MOLECULAR_WEIGHT>
362.5

> <PUBCHEM_OPENEYE_CAN_SMILES>
CCS(=O)(=O)C1=CC(=C(C=C1)OC)C2=CC=C(N2)C(C)N3CCCC3

> <PUBCHEM_OPENEYE_ISO_SMILES>
CCS(=O)(=O)C1=CC(=C(C=C1)OC)C2=CC=C(N2)C(C)N3CCCC3

> <PUBCHEM_CACTVS_TPSA>
70.8

> <PUBCHEM_MONOISOTOPIC_WEIGHT>
362.16641387

> <PUBCHEM_TOTAL_CHARGE>
0

> <PUBCHEM_HEAVY_ATOM_COUNT>
25

> <PUBCHEM_ATOM_DEF_STEREO_COUNT>
0

> <PUBCHEM_ATOM_UDEF_STEREO_COUNT>
1

> <PUBCHEM_BOND_DEF_STEREO_COUNT>
0

> <PUBCHEM_BOND_UDEF_STEREO_COUNT>
0

> <PUBCHEM_ISOTOPIC_ATOM_COUNT>
0

> <PUBCHEM_COMPONENT_COUNT>
1

> <PUBCHEM_CACTVS_TAUTO_COUNT>
-1

> <PUBCHEM_COORDINATE_TYPE>
1
5
255

> <PUBCHEM_BONDANNOTATIONS>
12  14  8
14  16  8
15  16  8
17  18  8
17  20  8
18  19  8
19  21  8
20  22  8
21  22  8
6  12  8
6  15  8
9  13  3

$$$$
