164622805
  -OEChem-09292322062D

 68 72  0     0  0  0  0  0  0999 V2000
    2.0000   -6.9148    0.0000 F   0  0  0  0  0  0  0  0  0  0  0  0
    5.5443   -6.7196    0.0000 O   0  0  0  0  0  0  0  0  0  0  0  0
    9.0546    0.0550    0.0000 O   0  0  0  0  0  0  0  0  0  0  0  0
   12.2078    6.9148    0.0000 O   0  0  0  0  0  0  0  0  0  0  0  0
    6.4763   -2.2585    0.0000 N   0  0  0  0  0  0  0  0  0  0  0  0
    6.1279   -5.9148    0.0000 N   0  0  0  0  0  0  0  0  0  0  0  0
   11.5864    5.0138    0.0000 N   0  0  0  0  0  0  0  0  0  0  0  0
    5.8550   -4.1596    0.0000 C   0  0  0  0  0  0  0  0  0  0  0  0
    6.8335   -3.9533    0.0000 C   0  0  0  0  0  0  0  0  0  0  0  0
    5.1871   -3.4153    0.0000 C   0  0  0  0  0  0  0  0  0  0  0  0
    7.1441   -3.0028    0.0000 C   0  0  0  0  0  0  0  0  0  0  0  0
    5.4978   -2.4647    0.0000 C   0  0  0  0  0  0  0  0  0  0  0  0
    6.7870   -1.3080    0.0000 C   0  0  0  0  0  0  0  0  0  0  0  0
    5.5443   -5.1101    0.0000 C   0  0  0  0  0  0  0  0  0  0  0  0
    7.7654   -1.1018    0.0000 C   0  0  0  0  0  0  0  0  0  0  0  0
    4.5981   -5.4148    0.0000 C   0  0  0  0  0  0  0  0  0  0  0  0
    8.0761   -0.1513    0.0000 C   0  0  0  0  0  0  0  0  0  0  0  0
    4.5981   -6.4148    0.0000 C   0  0  0  0  0  0  0  0  0  0  0  0
    3.7320   -4.9148    0.0000 C   0  0  0  0  0  0  0  0  0  0  0  0
   11.2758    4.0633    0.0000 C   0  0  0  0  0  0  0  0  0  0  0  0
   10.9186    5.7581    0.0000 C   0  0  0  0  0  0  0  0  0  0  0  0
   12.5649    5.2200    0.0000 C   0  0  0  0  0  0  0  0  0  0  0  0
    3.7320   -6.9148    0.0000 C   0  0  0  0  0  0  0  0  0  0  0  0
   10.2973    3.8570    0.0000 C   0  0  0  0  0  0  0  0  0  0  0  0
   11.2293    6.7086    0.0000 C   0  0  0  0  0  0  0  0  0  0  0  0
   12.8756    6.1705    0.0000 C   0  0  0  0  0  0  0  0  0  0  0  0
    2.8660   -5.4148    0.0000 C   0  0  0  0  0  0  0  0  0  0  0  0
    2.8660   -6.4148    0.0000 C   0  0  0  0  0  0  0  0  0  0  0  0
    9.9866    2.9065    0.0000 C   0  0  0  0  0  0  0  0  0  0  0  0
    9.3653    1.0055    0.0000 C   0  0  0  0  0  0  0  0  0  0  0  0
   10.6545    2.1622    0.0000 C   0  0  0  0  0  0  0  0  0  0  0  0
    9.0081    2.7003    0.0000 C   0  0  0  0  0  0  0  0  0  0  0  0
   10.3438    1.2117    0.0000 C   0  0  0  0  0  0  0  0  0  0  0  0
    8.6974    1.7498    0.0000 C   0  0  0  0  0  0  0  0  0  0  0  0
    6.2690   -4.6210    0.0000 H   0  0  0  0  0  0  0  0  0  0  0  0
    6.8540   -4.5730    0.0000 H   0  0  0  0  0  0  0  0  0  0  0  0
    7.4473   -4.0407    0.0000 H   0  0  0  0  0  0  0  0  0  0  0  0
    4.6402   -3.1232    0.0000 H   0  0  0  0  0  0  0  0  0  0  0  0
    4.8046   -3.9032    0.0000 H   0  0  0  0  0  0  0  0  0  0  0  0
    7.6910   -3.2948    0.0000 H   0  0  0  0  0  0  0  0  0  0  0  0
    7.5267   -2.5149    0.0000 H   0  0  0  0  0  0  0  0  0  0  0  0
    5.4772   -1.8451    0.0000 H   0  0  0  0  0  0  0  0  0  0  0  0
    4.8840   -2.3774    0.0000 H   0  0  0  0  0  0  0  0  0  0  0  0
    6.7664   -0.6883    0.0000 H   0  0  0  0  0  0  0  0  0  0  0  0
    6.1731   -1.2206    0.0000 H   0  0  0  0  0  0  0  0  0  0  0  0
    7.7860   -1.7214    0.0000 H   0  0  0  0  0  0  0  0  0  0  0  0
    8.3793   -1.1891    0.0000 H   0  0  0  0  0  0  0  0  0  0  0  0
    8.0556    0.4684    0.0000 H   0  0  0  0  0  0  0  0  0  0  0  0
    7.4623   -0.0639    0.0000 H   0  0  0  0  0  0  0  0  0  0  0  0
    3.7320   -4.2948    0.0000 H   0  0  0  0  0  0  0  0  0  0  0  0
   11.2963    3.4436    0.0000 H   0  0  0  0  0  0  0  0  0  0  0  0
   11.8896    3.9759    0.0000 H   0  0  0  0  0  0  0  0  0  0  0  0
   10.3717    6.0501    0.0000 H   0  0  0  0  0  0  0  0  0  0  0  0
   10.5360    5.2702    0.0000 H   0  0  0  0  0  0  0  0  0  0  0  0
   12.5855    4.6003    0.0000 H   0  0  0  0  0  0  0  0  0  0  0  0
   13.1788    5.1326    0.0000 H   0  0  0  0  0  0  0  0  0  0  0  0
    3.7320   -7.5348    0.0000 H   0  0  0  0  0  0  0  0  0  0  0  0
   10.2767    4.4767    0.0000 H   0  0  0  0  0  0  0  0  0  0  0  0
    9.6834    3.9444    0.0000 H   0  0  0  0  0  0  0  0  0  0  0  0
   11.2087    7.3283    0.0000 H   0  0  0  0  0  0  0  0  0  0  0  0
   10.6154    6.7960    0.0000 H   0  0  0  0  0  0  0  0  0  0  0  0
   13.4225    5.8785    0.0000 H   0  0  0  0  0  0  0  0  0  0  0  0
   13.2582    6.6584    0.0000 H   0  0  0  0  0  0  0  0  0  0  0  0
    2.3291   -5.1048    0.0000 H   0  0  0  0  0  0  0  0  0  0  0  0
   11.2611    2.2901    0.0000 H   0  0  0  0  0  0  0  0  0  0  0  0
    8.5940    3.1618    0.0000 H   0  0  0  0  0  0  0  0  0  0  0  0
   10.7578    0.7502    0.0000 H   0  0  0  0  0  0  0  0  0  0  0  0
    8.0908    1.6219    0.0000 H   0  0  0  0  0  0  0  0  0  0  0  0
  1 28  1  0  0  0  0
  2  6  1  0  0  0  0
  2 18  1  0  0  0  0
  3 17  1  0  0  0  0
  3 30  1  0  0  0  0
  4 25  1  0  0  0  0
  4 26  1  0  0  0  0
  5 11  1  0  0  0  0
  5 12  1  0  0  0  0
  5 13  1  0  0  0  0
  6 14  2  0  0  0  0
  7 20  1  0  0  0  0
  7 21  1  0  0  0  0
  7 22  1  0  0  0  0
  8  9  1  0  0  0  0
  8 10  1  0  0  0  0
  8 14  1  0  0  0  0
  8 35  1  0  0  0  0
  9 11  1  0  0  0  0
  9 36  1  0  0  0  0
  9 37  1  0  0  0  0
 10 12  1  0  0  0  0
 10 38  1  0  0  0  0
 10 39  1  0  0  0  0
 11 40  1  0  0  0  0
 11 41  1  0  0  0  0
 12 42  1  0  0  0  0
 12 43  1  0  0  0  0
 13 15  1  0  0  0  0
 13 44  1  0  0  0  0
 13 45  1  0  0  0  0
 14 16  1  0  0  0  0
 15 17  1  0  0  0  0
 15 46  1  0  0  0  0
 15 47  1  0  0  0  0
 16 18  2  0  0  0  0
 16 19  1  0  0  0  0
 17 48  1  0  0  0  0
 17 49  1  0  0  0  0
 18 23  1  0  0  0  0
 19 27  2  0  0  0  0
 19 50  1  0  0  0  0
 20 24  1  0  0  0  0
 20 51  1  0  0  0  0
 20 52  1  0  0  0  0
 21 25  1  0  0  0  0
 21 53  1  0  0  0  0
 21 54  1  0  0  0  0
 22 26  1  0  0  0  0
 22 55  1  0  0  0  0
 22 56  1  0  0  0  0
 23 28  2  0  0  0  0
 23 57  1  0  0  0  0
 24 29  1  0  0  0  0
 24 58  1  0  0  0  0
 24 59  1  0  0  0  0
 25 60  1  0  0  0  0
 25 61  1  0  0  0  0
 26 62  1  0  0  0  0
 26 63  1  0  0  0  0
 27 28  1  0  0  0  0
 27 64  1  0  0  0  0
 29 31  2  0  0  0  0
 29 32  1  0  0  0  0
 30 33  2  0  0  0  0
 30 34  1  0  0  0  0
 31 33  1  0  0  0  0
 31 65  1  0  0  0  0
 32 34  2  0  0  0  0
 32 66  1  0  0  0  0
 33 67  1  0  0  0  0
 34 68  1  0  0  0  0
M  END
> <PUBCHEM_COMPOUND_CID>
164622805

> <PUBCHEM_COMPOUND_CANONICALIZED>
1

> <PUBCHEM_CACTVS_COMPLEXITY>
592

> <PUBCHEM_CACTVS_HBOND_ACCEPTOR>
7

> <PUBCHEM_CACTVS_HBOND_DONOR>
0

> <PUBCHEM_CACTVS_ROTATABLE_BOND>
9

> <PUBCHEM_CACTVS_SUBSKEYS>
AAADcfB7MQAAAAAAAAAAAAAAAAAAAWAAAAA8eIEAAAAAAFgB9AAAHwAEAAAADQzhng4whtMQBACpA6RyQgCCCAAkIAAomCE+TNoOJrqEtZuHOaDmwBmY6ceYyOCOIAAAAAAIAABAAAAAABAAAAAAAAAAAA==

> <PUBCHEM_IUPAC_OPENEYE_NAME>
6-fluoro-3-[1-[3-[4-(2-morpholinoethyl)phenoxy]propyl]-4-piperidyl]-1,2-benzoxazole

> <PUBCHEM_IUPAC_CAS_NAME>
6-fluoro-3-[1-[3-[4-[2-(4-morpholinyl)ethyl]phenoxy]propyl]-4-piperidinyl]-1,2-benzoxazole

> <PUBCHEM_IUPAC_NAME_MARKUP>
6-fluoro-3-[1-[3-[4-(2-morpholin-4-ylethyl)phenoxy]propyl]piperidin-4-yl]-1,2-benzoxazole

> <PUBCHEM_IUPAC_NAME>
6-fluoro-3-[1-[3-[4-(2-morpholin-4-ylethyl)phenoxy]propyl]piperidin-4-yl]-1,2-benzoxazole

> <PUBCHEM_IUPAC_SYSTEMATIC_NAME>
6-fluoranyl-3-[1-[3-[4-(2-morpholin-4-ylethyl)phenoxy]propyl]piperidin-4-yl]-1,2-benzoxazole

> <PUBCHEM_IUPAC_TRADITIONAL_NAME>
6-fluoro-3-[1-[3-[4-(2-morpholinoethyl)phenoxy]propyl]-4-piperidyl]indoxazene

> <PUBCHEM_IUPAC_INCHI>
InChI=1S/C27H34FN3O3/c28-23-4-7-25-26(20-23)34-29-27(25)22-9-13-30(14-10-22)11-1-17-33-24-5-2-21(3-6-24)8-12-31-15-18-32-19-16-31/h2-7,20,22H,1,8-19H2

> <PUBCHEM_IUPAC_INCHIKEY>
BTEMXIHCAGOPHX-UHFFFAOYSA-N

> <PUBCHEM_XLOGP3_AA>
4.4

> <PUBCHEM_EXACT_MASS>
467.25842012

> <PUBCHEM_MOLECULAR_FORMULA>
C27H34FN3O3

> <PUBCHEM_MOLECULAR_WEIGHT>
467.6

> <PUBCHEM_OPENEYE_CAN_SMILES>
C1CN(CCC1C2=NOC3=C2C=CC(=C3)F)CCCOC4=CC=C(C=C4)CCN5CCOCC5

> <PUBCHEM_OPENEYE_ISO_SMILES>
C1CN(CCC1C2=NOC3=C2C=CC(=C3)F)CCCOC4=CC=C(C=C4)CCN5CCOCC5

> <PUBCHEM_CACTVS_TPSA>
51

> <PUBCHEM_MONOISOTOPIC_WEIGHT>
467.25842012

> <PUBCHEM_TOTAL_CHARGE>
0

> <PUBCHEM_HEAVY_ATOM_COUNT>
34

> <PUBCHEM_ATOM_DEF_STEREO_COUNT>
0

> <PUBCHEM_ATOM_UDEF_STEREO_COUNT>
0

> <PUBCHEM_BOND_DEF_STEREO_COUNT>
0

> <PUBCHEM_BOND_UDEF_STEREO_COUNT>
0

> <PUBCHEM_ISOTOPIC_ATOM_COUNT>
0

> <PUBCHEM_COMPONENT_COUNT>
1

> <PUBCHEM_CACTVS_TAUTO_COUNT>
-1

> <PUBCHEM_COORDINATE_TYPE>
1
5
255

> <PUBCHEM_BONDANNOTATIONS>
14  16  8
16  18  8
16  19  8
18  23  8
19  27  8
2  18  8
2  6  8
23  28  8
27  28  8
29  31  8
29  32  8
30  33  8
30  34  8
31  33  8
32  34  8
6  14  8

$$$$
