44447010
  -OEChem-09292322262D

 68 73  0     1  0  0  0  0  0999 V2000
    3.7899    1.3162    0.0000 S   0  0  0  0  0  0  0  0  0  0  0  0
   14.6962   -1.1646    0.0000 O   0  0  0  0  0  0  0  0  0  0  0  0
    7.4629   -1.3818    0.0000 N   0  0  0  0  0  0  0  0  0  0  0  0
    5.7308   -0.3818    0.0000 N   0  0  0  0  0  0  0  0  0  0  0  0
   13.0499   -0.6265    0.0000 N   0  0  0  0  0  0  0  0  0  0  0  0
    4.7617    1.1070    0.0000 N   0  0  0  0  0  0  0  0  0  0  0  0
   12.7392   -1.5770    0.0000 C   0  0  3  0  0  0  0  0  0  0  0  0
   11.7930   -1.8818    0.0000 C   0  0  0  0  0  0  0  0  0  0  0  0
   13.3228   -2.3818    0.0000 C   0  0  0  0  0  0  0  0  0  0  0  0
   12.7392   -3.1865    0.0000 C   0  0  0  0  0  0  0  0  0  0  0  0
   11.7930   -2.8818    0.0000 C   0  0  0  0  0  0  0  0  0  0  0  0
    7.4629   -0.3818    0.0000 C   0  0  0  0  0  0  0  0  0  0  0  0
    6.5968   -1.8818    0.0000 C   0  0  0  0  0  0  0  0  0  0  0  0
    8.3289   -1.8818    0.0000 C   0  0  0  0  0  0  0  0  0  0  0  0
    9.1949   -1.3818    0.0000 C   0  0  0  0  0  0  0  0  0  0  0  0
    6.5968    0.1182    0.0000 C   0  0  0  0  0  0  0  0  0  0  0  0
    5.7308   -1.3818    0.0000 C   0  0  0  0  0  0  0  0  0  0  0  0
   10.0610   -1.8818    0.0000 C   0  0  0  0  0  0  0  0  0  0  0  0
   10.9270   -1.3818    0.0000 C   0  0  0  0  0  0  0  0  0  0  0  0
   10.9270   -3.3818    0.0000 C   0  0  0  0  0  0  0  0  0  0  0  0
   10.0610   -2.8818    0.0000 C   0  0  0  0  0  0  0  0  0  0  0  0
    4.8648    0.1182    0.0000 C   0  0  0  0  0  0  0  0  0  0  0  0
    3.9570   -0.2869    0.0000 C   0  0  0  0  0  0  0  0  0  0  0  0
   14.0284   -0.4203    0.0000 C   0  0  0  0  0  0  0  0  0  0  0  0
    3.2892    0.4574    0.0000 C   0  0  0  0  0  0  0  0  0  0  0  0
   14.3391    0.5302    0.0000 C   0  0  0  0  0  0  0  0  0  0  0  0
    3.6464   -1.2374    0.0000 C   0  0  0  0  0  0  0  0  0  0  0  0
    2.3107    0.2512    0.0000 C   0  0  0  0  0  0  0  0  0  0  0  0
    2.6678   -1.4436    0.0000 C   0  0  0  0  0  0  0  0  0  0  0  0
   13.6712    1.2745    0.0000 C   0  0  0  0  0  0  0  0  0  0  0  0
   15.3176    0.7364    0.0000 C   0  0  0  0  0  0  0  0  0  0  0  0
    2.0000   -0.6993    0.0000 C   0  0  0  0  0  0  0  0  0  0  0  0
   13.9819    2.2250    0.0000 C   0  0  0  0  0  0  0  0  0  0  0  0
   15.6282    1.6870    0.0000 C   0  0  0  0  0  0  0  0  0  0  0  0
   14.9604    2.4313    0.0000 C   0  0  0  0  0  0  0  0  0  0  0  0
   15.2710    3.3818    0.0000 C   0  0  0  0  0  0  0  0  0  0  0  0
   13.3517   -1.4808    0.0000 H   0  0  0  0  0  0  0  0  0  0  0  0
   13.7837   -2.7965    0.0000 H   0  0  0  0  0  0  0  0  0  0  0  0
   13.7837   -1.9670    0.0000 H   0  0  0  0  0  0  0  0  0  0  0  0
   12.4882   -3.7534    0.0000 H   0  0  0  0  0  0  0  0  0  0  0  0
   13.2766   -3.4957    0.0000 H   0  0  0  0  0  0  0  0  0  0  0  0
    8.0734   -0.4894    0.0000 H   0  0  0  0  0  0  0  0  0  0  0  0
    7.6749    0.2008    0.0000 H   0  0  0  0  0  0  0  0  0  0  0  0
    6.1983   -2.3567    0.0000 H   0  0  0  0  0  0  0  0  0  0  0  0
    6.9954   -2.3567    0.0000 H   0  0  0  0  0  0  0  0  0  0  0  0
    7.9304   -2.3567    0.0000 H   0  0  0  0  0  0  0  0  0  0  0  0
    8.7274   -2.3567    0.0000 H   0  0  0  0  0  0  0  0  0  0  0  0
    9.5934   -0.9068    0.0000 H   0  0  0  0  0  0  0  0  0  0  0  0
    8.7964   -0.9068    0.0000 H   0  0  0  0  0  0  0  0  0  0  0  0
    6.9954    0.5932    0.0000 H   0  0  0  0  0  0  0  0  0  0  0  0
    6.1983    0.5932    0.0000 H   0  0  0  0  0  0  0  0  0  0  0  0
    5.1202   -1.2741    0.0000 H   0  0  0  0  0  0  0  0  0  0  0  0
    5.5188   -1.9644    0.0000 H   0  0  0  0  0  0  0  0  0  0  0  0
   10.9270   -0.7618    0.0000 H   0  0  0  0  0  0  0  0  0  0  0  0
   10.9270   -4.0018    0.0000 H   0  0  0  0  0  0  0  0  0  0  0  0
   12.6358   -0.1651    0.0000 H   0  0  0  0  0  0  0  0  0  0  0  0
    9.5240   -3.1918    0.0000 H   0  0  0  0  0  0  0  0  0  0  0  0
    4.0604   -1.6989    0.0000 H   0  0  0  0  0  0  0  0  0  0  0  0
    1.8966    0.7127    0.0000 H   0  0  0  0  0  0  0  0  0  0  0  0
    2.4752   -2.0330    0.0000 H   0  0  0  0  0  0  0  0  0  0  0  0
   13.0645    1.1467    0.0000 H   0  0  0  0  0  0  0  0  0  0  0  0
   15.7316    0.2750    0.0000 H   0  0  0  0  0  0  0  0  0  0  0  0
    1.3933   -0.8272    0.0000 H   0  0  0  0  0  0  0  0  0  0  0  0
   13.5678    2.6865    0.0000 H   0  0  0  0  0  0  0  0  0  0  0  0
   16.2349    1.8148    0.0000 H   0  0  0  0  0  0  0  0  0  0  0  0
   15.8604    3.1892    0.0000 H   0  0  0  0  0  0  0  0  0  0  0  0
   15.4636    3.9711    0.0000 H   0  0  0  0  0  0  0  0  0  0  0  0
   14.6817    3.5744    0.0000 H   0  0  0  0  0  0  0  0  0  0  0  0
  1  6  1  0  0  0  0
  1 25  1  0  0  0  0
  2 24  2  0  0  0  0
  3 12  1  0  0  0  0
  3 13  1  0  0  0  0
  3 14  1  0  0  0  0
  4 16  1  0  0  0  0
  4 17  1  0  0  0  0
  4 22  1  0  0  0  0
  5  7  1  0  0  0  0
  5 24  1  0  0  0  0
  5 56  1  0  0  0  0
  6 22  2  0  0  0  0
  7  8  1  0  0  0  0
  7  9  1  0  0  0  0
  7 37  1  0  0  0  0
  8 11  2  0  0  0  0
  8 19  1  0  0  0  0
  9 10  1  0  0  0  0
  9 38  1  0  0  0  0
  9 39  1  0  0  0  0
 10 11  1  0  0  0  0
 10 40  1  0  0  0  0
 10 41  1  0  0  0  0
 11 20  1  0  0  0  0
 12 16  1  0  0  0  0
 12 42  1  0  0  0  0
 12 43  1  0  0  0  0
 13 17  1  0  0  0  0
 13 44  1  0  0  0  0
 13 45  1  0  0  0  0
 14 15  1  0  0  0  0
 14 46  1  0  0  0  0
 14 47  1  0  0  0  0
 15 18  1  0  0  0  0
 15 48  1  0  0  0  0
 15 49  1  0  0  0  0
 16 50  1  0  0  0  0
 16 51  1  0  0  0  0
 17 52  1  0  0  0  0
 17 53  1  0  0  0  0
 18 19  2  0  0  0  0
 18 21  1  0  0  0  0
 19 54  1  0  0  0  0
 20 21  2  0  0  0  0
 20 55  1  0  0  0  0
 21 57  1  0  0  0  0
 22 23  1  0  0  0  0
 23 25  1  0  0  0  0
 23 27  2  0  0  0  0
 24 26  1  0  0  0  0
 25 28  2  0  0  0  0
 26 30  2  0  0  0  0
 26 31  1  0  0  0  0
 27 29  1  0  0  0  0
 27 58  1  0  0  0  0
 28 32  1  0  0  0  0
 28 59  1  0  0  0  0
 29 32  2  0  0  0  0
 29 60  1  0  0  0  0
 30 33  1  0  0  0  0
 30 61  1  0  0  0  0
 31 34  2  0  0  0  0
 31 62  1  0  0  0  0
 32 63  1  0  0  0  0
 33 35  2  0  0  0  0
 33 64  1  0  0  0  0
 34 35  1  0  0  0  0
 34 65  1  0  0  0  0
 35 36  1  0  0  0  0
 36 66  1  0  0  0  0
 36 67  1  0  0  0  0
 36 68  1  0  0  0  0
M  END
> <PUBCHEM_COMPOUND_CID>
44447010

> <PUBCHEM_COMPOUND_CANONICALIZED>
1

> <PUBCHEM_CACTVS_COMPLEXITY>
735

> <PUBCHEM_CACTVS_HBOND_ACCEPTOR>
5

> <PUBCHEM_CACTVS_HBOND_DONOR>
1

> <PUBCHEM_CACTVS_ROTATABLE_BOND>
6

> <PUBCHEM_CACTVS_SUBSKEYS>
AAADcfB7oABAAAAAAAAAAAAAAAAAAeIAAAA8YMEAAAAAAHgB9AAAHgQQQAAADCjB2gQzsdPAAACsAiNycACDABAlAABJmLkoRNiIYLLAnZGUIQxglgLIyYcYiMCOwAACAAAUAACAAAQAACgAACAACQAAAA==

> <PUBCHEM_IUPAC_OPENEYE_NAME>
N-[6-[2-[4-(1,2-benzothiazol-3-yl)piperazin-1-yl]ethyl]indan-1-yl]-4-methyl-benzamide

> <PUBCHEM_IUPAC_CAS_NAME>
N-[6-[2-[4-(1,2-benzothiazol-3-yl)-1-piperazinyl]ethyl]-2,3-dihydro-1H-inden-1-yl]-4-methylbenzamide

> <PUBCHEM_IUPAC_NAME_MARKUP>
<I>N</I>-[6-[2-[4-(1,2-benzothiazol-3-yl)piperazin-1-yl]ethyl]-2,3-dihydro-1<I>H</I>-inden-1-yl]-4-methylbenzamide

> <PUBCHEM_IUPAC_NAME>
N-[6-[2-[4-(1,2-benzothiazol-3-yl)piperazin-1-yl]ethyl]-2,3-dihydro-1H-inden-1-yl]-4-methylbenzamide

> <PUBCHEM_IUPAC_SYSTEMATIC_NAME>
N-[6-[2-[4-(1,2-benzothiazol-3-yl)piperazin-1-yl]ethyl]-2,3-dihydro-1H-inden-1-yl]-4-methyl-benzamide

> <PUBCHEM_IUPAC_TRADITIONAL_NAME>
N-[6-[2-[4-(1,2-benzothiazol-3-yl)piperazino]ethyl]indan-1-yl]-4-methyl-benzamide

> <PUBCHEM_IUPAC_INCHI>
InChI=1S/C30H32N4OS/c1-21-6-9-24(10-7-21)30(35)31-27-13-12-23-11-8-22(20-26(23)27)14-15-33-16-18-34(19-17-33)29-25-4-2-3-5-28(25)36-32-29/h2-11,20,27H,12-19H2,1H3,(H,31,35)

> <PUBCHEM_IUPAC_INCHIKEY>
ZAAQJDPTTZJUDL-UHFFFAOYSA-N

> <PUBCHEM_XLOGP3_AA>
6.1

> <PUBCHEM_EXACT_MASS>
496.22968283

> <PUBCHEM_MOLECULAR_FORMULA>
C30H32N4OS

> <PUBCHEM_MOLECULAR_WEIGHT>
496.7

> <PUBCHEM_OPENEYE_CAN_SMILES>
CC1=CC=C(C=C1)C(=O)NC2CCC3=C2C=C(C=C3)CCN4CCN(CC4)C5=NSC6=CC=CC=C65

> <PUBCHEM_OPENEYE_ISO_SMILES>
CC1=CC=C(C=C1)C(=O)NC2CCC3=C2C=C(C=C3)CCN4CCN(CC4)C5=NSC6=CC=CC=C65

> <PUBCHEM_CACTVS_TPSA>
76.7

> <PUBCHEM_MONOISOTOPIC_WEIGHT>
496.22968283

> <PUBCHEM_TOTAL_CHARGE>
0

> <PUBCHEM_HEAVY_ATOM_COUNT>
36

> <PUBCHEM_ATOM_DEF_STEREO_COUNT>
0

> <PUBCHEM_ATOM_UDEF_STEREO_COUNT>
1

> <PUBCHEM_BOND_DEF_STEREO_COUNT>
0

> <PUBCHEM_BOND_UDEF_STEREO_COUNT>
0

> <PUBCHEM_ISOTOPIC_ATOM_COUNT>
0

> <PUBCHEM_COMPONENT_COUNT>
1

> <PUBCHEM_CACTVS_TAUTO_COUNT>
-1

> <PUBCHEM_COORDINATE_TYPE>
1
5
255

> <PUBCHEM_BONDANNOTATIONS>
1  25  8
1  6  8
11  20  8
18  19  8
18  21  8
20  21  8
22  23  8
23  25  8
23  27  8
25  28  8
26  30  8
26  31  8
27  29  8
28  32  8
29  32  8
30  33  8
31  34  8
33  35  8
34  35  8
7  5  3
6  22  8
8  11  8
8  19  8

$$$$
