122177643
  -OEChem-09292322002D

 94 97  0     1  0  0  0  0  0999 V2000
   16.2775   -7.4643    0.0000 O   0  0  0  0  0  0  0  0  0  0  0  0
    9.3493    4.5357    0.0000 O   0  0  0  0  0  0  0  0  0  0  0  0
   19.8076   -6.4884    0.0000 O   0  0  0  0  0  0  0  0  0  0  0  0
   13.6794    3.0357    0.0000 O   0  0  0  0  0  0  0  0  0  0  0  0
   11.0813    5.5357    0.0000 O   0  0  0  0  0  0  0  0  0  0  0  0
   15.4115   -1.9643    0.0000 N   0  0  3  0  0  0  0  0  0  0  0  0
   12.8134    1.5357    0.0000 N   0  0  0  0  0  0  0  0  0  0  0  0
   18.0375   -6.4990    0.0000 N   0  0  0  0  0  0  0  0  0  0  0  0
    4.8025    5.7381    0.0000 N   0  0  0  0  0  0  0  0  0  0  0  0
    4.9716    4.1290    0.0000 N   0  0  0  0  0  0  0  0  0  0  0  0
    4.3025    4.8721    0.0000 N   0  0  0  0  0  0  0  0  0  0  0  0
   14.5454   -1.4643    0.0000 C   0  0  0  0  0  0  0  0  0  0  0  0
   15.4115   -2.9643    0.0000 C   0  0  0  0  0  0  0  0  0  0  0  0
   14.5454   -0.4643    0.0000 C   0  0  0  0  0  0  0  0  0  0  0  0
   16.2775   -1.4643    0.0000 C   0  0  0  0  0  0  0  0  0  0  0  0
   16.2775   -3.4643    0.0000 C   0  0  0  0  0  0  0  0  0  0  0  0
   13.6794    0.0357    0.0000 C   0  0  0  0  0  0  0  0  0  0  0  0
   16.2775   -0.4643    0.0000 C   0  0  0  0  0  0  0  0  0  0  0  0
   16.2775   -4.4643    0.0000 C   0  0  0  0  0  0  0  0  0  0  0  0
   13.6794    1.0357    0.0000 C   0  0  0  0  0  0  0  0  0  0  0  0
   17.1435   -4.9643    0.0000 C   0  0  0  0  0  0  0  0  0  0  0  0
   17.1435    0.0357    0.0000 C   0  0  0  0  0  0  0  0  0  0  0  0
   15.4115   -4.9643    0.0000 C   0  0  0  0  0  0  0  0  0  0  0  0
   17.1435   -5.9643    0.0000 C   0  0  0  0  0  0  0  0  0  0  0  0
   16.2775   -6.4643    0.0000 C   0  0  0  0  0  0  0  0  0  0  0  0
   18.0375   -4.4296    0.0000 C   0  0  0  0  0  0  0  0  0  0  0  0
   15.4115   -5.9643    0.0000 C   0  0  0  0  0  0  0  0  0  0  0  0
   18.9435   -4.9435    0.0000 C   0  0  0  0  0  0  0  0  0  0  0  0
   18.9435   -5.9851    0.0000 C   0  0  0  0  0  0  0  0  0  0  0  0
   12.8134    2.5357    0.0000 C   0  0  0  0  0  0  0  0  0  0  0  0
   11.9474    3.0357    0.0000 C   0  0  0  0  0  0  0  0  0  0  0  0
    6.7512    4.0357    0.0000 C   0  0  0  0  0  0  0  0  0  0  0  0
    4.3958    6.6517    0.0000 C   0  0  0  0  0  0  0  0  0  0  0  0
    7.6172    4.5357    0.0000 C   0  0  0  0  0  0  0  0  0  0  0  0
    3.4013    6.7562    0.0000 C   0  0  0  0  0  0  0  0  0  0  0  0
    5.8852    4.5357    0.0000 C   0  0  0  0  0  0  0  0  0  0  0  0
    8.4833    4.0357    0.0000 C   0  0  0  0  0  0  0  0  0  0  0  0
    2.9945    7.6698    0.0000 C   0  0  0  0  0  0  0  0  0  0  0  0
   11.9474    4.0357    0.0000 C   0  0  0  0  0  0  0  0  0  0  0  0
    5.7807    5.5302    0.0000 C   0  0  0  0  0  0  0  0  0  0  0  0
   11.0813    2.5357    0.0000 C   0  0  0  0  0  0  0  0  0  0  0  0
   10.2153    4.0357    0.0000 C   0  0  0  0  0  0  0  0  0  0  0  0
   11.0813    4.5357    0.0000 C   0  0  0  0  0  0  0  0  0  0  0  0
   10.2153    3.0357    0.0000 C   0  0  0  0  0  0  0  0  0  0  0  0
    2.0000    7.7743    0.0000 C   0  0  0  0  0  0  0  0  0  0  0  0
   11.9474    6.0357    0.0000 C   0  0  0  0  0  0  0  0  0  0  0  0
   13.9349   -1.3566    0.0000 H   0  0  0  0  0  0  0  0  0  0  0  0
   14.3334   -2.0469    0.0000 H   0  0  0  0  0  0  0  0  0  0  0  0
   14.8009   -2.8566    0.0000 H   0  0  0  0  0  0  0  0  0  0  0  0
   15.1994   -3.5469    0.0000 H   0  0  0  0  0  0  0  0  0  0  0  0
   15.1560   -0.5720    0.0000 H   0  0  0  0  0  0  0  0  0  0  0  0
   14.7575    0.1183    0.0000 H   0  0  0  0  0  0  0  0  0  0  0  0
   16.4896   -2.0469    0.0000 H   0  0  0  0  0  0  0  0  0  0  0  0
   16.8881   -1.3566    0.0000 H   0  0  0  0  0  0  0  0  0  0  0  0
   16.8881   -3.5720    0.0000 H   0  0  0  0  0  0  0  0  0  0  0  0
   16.4896   -2.8817    0.0000 H   0  0  0  0  0  0  0  0  0  0  0  0
   13.0688    0.1434    0.0000 H   0  0  0  0  0  0  0  0  0  0  0  0
   13.4674   -0.5469    0.0000 H   0  0  0  0  0  0  0  0  0  0  0  0
   16.0654    0.1183    0.0000 H   0  0  0  0  0  0  0  0  0  0  0  0
   15.6669   -0.5720    0.0000 H   0  0  0  0  0  0  0  0  0  0  0  0
   14.2900    0.9280    0.0000 H   0  0  0  0  0  0  0  0  0  0  0  0
   13.8915    1.6183    0.0000 H   0  0  0  0  0  0  0  0  0  0  0  0
   17.4535   -0.5012    0.0000 H   0  0  0  0  0  0  0  0  0  0  0  0
   17.6805    0.3457    0.0000 H   0  0  0  0  0  0  0  0  0  0  0  0
   16.8335    0.5726    0.0000 H   0  0  0  0  0  0  0  0  0  0  0  0
   14.8745   -4.6543    0.0000 H   0  0  0  0  0  0  0  0  0  0  0  0
   12.2765    1.2257    0.0000 H   0  0  0  0  0  0  0  0  0  0  0  0
   18.0303   -3.8097    0.0000 H   0  0  0  0  0  0  0  0  0  0  0  0
   14.8745   -6.2743    0.0000 H   0  0  0  0  0  0  0  0  0  0  0  0
   18.0303   -7.1189    0.0000 H   0  0  0  0  0  0  0  0  0  0  0  0
   19.4793   -4.6314    0.0000 H   0  0  0  0  0  0  0  0  0  0  0  0
    6.3527    3.5608    0.0000 H   0  0  0  0  0  0  0  0  0  0  0  0
    7.1498    3.5608    0.0000 H   0  0  0  0  0  0  0  0  0  0  0  0
    4.9974    6.8017    0.0000 H   0  0  0  0  0  0  0  0  0  0  0  0
    4.3525    7.2702    0.0000 H   0  0  0  0  0  0  0  0  0  0  0  0
    8.0158    5.0107    0.0000 H   0  0  0  0  0  0  0  0  0  0  0  0
    7.2187    5.0107    0.0000 H   0  0  0  0  0  0  0  0  0  0  0  0
    2.7997    6.6062    0.0000 H   0  0  0  0  0  0  0  0  0  0  0  0
    3.4445    6.1377    0.0000 H   0  0  0  0  0  0  0  0  0  0  0  0
   15.7406   -7.7743    0.0000 H   0  0  0  0  0  0  0  0  0  0  0  0
    8.0847    3.5608    0.0000 H   0  0  0  0  0  0  0  0  0  0  0  0
    8.8818    3.5608    0.0000 H   0  0  0  0  0  0  0  0  0  0  0  0
    3.5961    7.8198    0.0000 H   0  0  0  0  0  0  0  0  0  0  0  0
    2.9513    8.2882    0.0000 H   0  0  0  0  0  0  0  0  0  0  0  0
    6.2414    5.9451    0.0000 H   0  0  0  0  0  0  0  0  0  0  0  0
   12.4843    4.3457    0.0000 H   0  0  0  0  0  0  0  0  0  0  0  0
   11.0813    1.9157    0.0000 H   0  0  0  0  0  0  0  0  0  0  0  0
    9.6784    2.7257    0.0000 H   0  0  0  0  0  0  0  0  0  0  0  0
    2.0648    8.3909    0.0000 H   0  0  0  0  0  0  0  0  0  0  0  0
    1.3834    7.8391    0.0000 H   0  0  0  0  0  0  0  0  0  0  0  0
    1.9352    7.1577    0.0000 H   0  0  0  0  0  0  0  0  0  0  0  0
   12.2574    5.4988    0.0000 H   0  0  0  0  0  0  0  0  0  0  0  0
   12.4843    6.3457    0.0000 H   0  0  0  0  0  0  0  0  0  0  0  0
   11.6374    6.5726    0.0000 H   0  0  0  0  0  0  0  0  0  0  0  0
  1 25  1  0  0  0  0
  1 80  1  0  0  0  0
  2 37  1  0  0  0  0
  2 42  1  0  0  0  0
  3 29  2  0  0  0  0
  4 30  2  0  0  0  0
  5 43  1  0  0  0  0
  5 46  1  0  0  0  0
  6 12  1  0  0  0  0
  6 13  1  0  0  0  0
  6 15  1  0  0  0  0
  7 20  1  0  0  0  0
  7 30  1  0  0  0  0
  7 67  1  0  0  0  0
  8 24  1  0  0  0  0
  8 29  1  0  0  0  0
  8 70  1  0  0  0  0
  9 11  1  0  0  0  0
  9 33  1  0  0  0  0
  9 40  1  0  0  0  0
 10 11  2  0  0  0  0
 10 36  1  0  0  0  0
 12 14  1  0  0  0  0
 12 47  1  0  0  0  0
 12 48  1  0  0  0  0
 13 16  1  0  0  0  0
 13 49  1  0  0  0  0
 13 50  1  0  0  0  0
 14 17  1  0  0  0  0
 14 51  1  0  0  0  0
 14 52  1  0  0  0  0
 15 18  1  0  0  0  0
 15 53  1  0  0  0  0
 15 54  1  0  0  0  0
 16 19  1  0  0  0  0
 16 55  1  0  0  0  0
 16 56  1  0  0  0  0
 17 20  1  0  0  0  0
 17 57  1  0  0  0  0
 17 58  1  0  0  0  0
 18 22  1  0  0  0  0
 18 59  1  0  0  0  0
 18 60  1  0  0  0  0
 19 21  2  0  0  0  0
 19 23  1  0  0  0  0
 20 61  1  0  0  0  0
 20 62  1  0  0  0  0
 21 24  1  0  0  0  0
 21 26  1  0  0  0  0
 22 63  1  0  0  0  0
 22 64  1  0  0  0  0
 22 65  1  0  0  0  0
 23 27  2  0  0  0  0
 23 66  1  0  0  0  0
 24 25  2  0  0  0  0
 25 27  1  0  0  0  0
 26 28  2  0  0  0  0
 26 68  1  0  0  0  0
 27 69  1  0  0  0  0
 28 29  1  0  0  0  0
 28 71  1  0  0  0  0
 30 31  1  0  0  0  0
 31 39  2  0  0  0  0
 31 41  1  0  0  0  0
 32 34  1  0  0  0  0
 32 36  1  0  0  0  0
 32 72  1  0  0  0  0
 32 73  1  0  0  0  0
 33 35  1  0  0  0  0
 33 74  1  0  0  0  0
 33 75  1  0  0  0  0
 34 37  1  0  0  0  0
 34 76  1  0  0  0  0
 34 77  1  0  0  0  0
 35 38  1  0  0  0  0
 35 78  1  0  0  0  0
 35 79  1  0  0  0  0
 36 40  2  0  0  0  0
 37 81  1  0  0  0  0
 37 82  1  0  0  0  0
 38 45  1  0  0  0  0
 38 83  1  0  0  0  0
 38 84  1  0  0  0  0
 39 43  1  0  0  0  0
 39 86  1  0  0  0  0
 40 85  1  0  0  0  0
 41 44  2  0  0  0  0
 41 87  1  0  0  0  0
 42 43  2  0  0  0  0
 42 44  1  0  0  0  0
 44 88  1  0  0  0  0
 45 89  1  0  0  0  0
 45 90  1  0  0  0  0
 45 91  1  0  0  0  0
 46 92  1  0  0  0  0
 46 93  1  0  0  0  0
 46 94  1  0  0  0  0
M  END
> <PUBCHEM_COMPOUND_CID>
122177643

> <PUBCHEM_COMPOUND_CANONICALIZED>
1

> <PUBCHEM_CACTVS_COMPLEXITY>
939

> <PUBCHEM_CACTVS_HBOND_ACCEPTOR>
8

> <PUBCHEM_CACTVS_HBOND_DONOR>
3

> <PUBCHEM_CACTVS_ROTATABLE_BOND>
20

> <PUBCHEM_CACTVS_SUBSKEYS>
AAADcfB/uAAAAAAAAAAAAAAAAAAAAWAAAAAwYIAAAAAAAACB0AAAHgAYCAAADAzhngY+xpPIBgCqAzV3VACCDAQ1sgAY2IE//MgPZjLWtZuWeSrk1hHa+Ye63JLOoAABQAASUABAAAKAACSgAAAAAAAAAA==

> <PUBCHEM_IUPAC_OPENEYE_NAME>
4-[3-(1-butyltriazol-4-yl)propoxy]-N-[4-[2-(8-hydroxy-2-oxo-1H-quinolin-5-yl)ethyl-propyl-amino]butyl]-3-methoxy-benzamide

> <PUBCHEM_IUPAC_CAS_NAME>
4-[3-(1-butyl-4-triazolyl)propoxy]-N-[4-[2-(8-hydroxy-2-oxo-1H-quinolin-5-yl)ethyl-propylamino]butyl]-3-methoxybenzamide

> <PUBCHEM_IUPAC_NAME_MARKUP>
4-[3-(1-butyltriazol-4-yl)propoxy]-<I>N</I>-[4-[2-(8-hydroxy-2-oxo-1<I>H</I>-quinolin-5-yl)ethyl-propylamino]butyl]-3-methoxybenzamide

> <PUBCHEM_IUPAC_NAME>
4-[3-(1-butyltriazol-4-yl)propoxy]-N-[4-[2-(8-hydroxy-2-oxo-1H-quinolin-5-yl)ethyl-propylamino]butyl]-3-methoxybenzamide

> <PUBCHEM_IUPAC_SYSTEMATIC_NAME>
4-[3-(1-butyl-1,2,3-triazol-4-yl)propoxy]-3-methoxy-N-[4-[2-(8-oxidanyl-2-oxidanylidene-1H-quinolin-5-yl)ethyl-propyl-amino]butyl]benzamide

> <PUBCHEM_IUPAC_TRADITIONAL_NAME>
4-[3-(1-butyltriazol-4-yl)propoxy]-N-[4-[2-(8-hydroxy-2-keto-1H-quinolin-5-yl)ethyl-propyl-amino]butyl]-3-methoxy-benzamide

> <PUBCHEM_IUPAC_INCHI>
InChI=1S/C35H48N6O5/c1-4-6-21-41-25-28(38-39-41)10-9-23-46-31-15-12-27(24-32(31)45-3)35(44)36-18-7-8-20-40(19-5-2)22-17-26-11-14-30(42)34-29(26)13-16-33(43)37-34/h11-16,24-25,42H,4-10,17-23H2,1-3H3,(H,36,44)(H,37,43)

> <PUBCHEM_IUPAC_INCHIKEY>
BOUDGQUEAMMTAE-UHFFFAOYSA-N

> <PUBCHEM_XLOGP3_AA>
5.1

> <PUBCHEM_EXACT_MASS>
632.36861865

> <PUBCHEM_MOLECULAR_FORMULA>
C35H48N6O5

> <PUBCHEM_MOLECULAR_WEIGHT>
632.8

> <PUBCHEM_OPENEYE_CAN_SMILES>
CCCCN1C=C(N=N1)CCCOC2=C(C=C(C=C2)C(=O)NCCCCN(CCC)CCC3=C4C=CC(=O)NC4=C(C=C3)O)OC

> <PUBCHEM_OPENEYE_ISO_SMILES>
CCCCN1C=C(N=N1)CCCOC2=C(C=C(C=C2)C(=O)NCCCCN(CCC)CCC3=C4C=CC(=O)NC4=C(C=C3)O)OC

> <PUBCHEM_CACTVS_TPSA>
131

> <PUBCHEM_MONOISOTOPIC_WEIGHT>
632.36861865

> <PUBCHEM_TOTAL_CHARGE>
0

> <PUBCHEM_HEAVY_ATOM_COUNT>
46

> <PUBCHEM_ATOM_DEF_STEREO_COUNT>
0

> <PUBCHEM_ATOM_UDEF_STEREO_COUNT>
0

> <PUBCHEM_BOND_DEF_STEREO_COUNT>
0

> <PUBCHEM_BOND_UDEF_STEREO_COUNT>
0

> <PUBCHEM_ISOTOPIC_ATOM_COUNT>
0

> <PUBCHEM_COMPONENT_COUNT>
1

> <PUBCHEM_CACTVS_TAUTO_COUNT>
-1

> <PUBCHEM_COORDINATE_TYPE>
1
5
255

> <PUBCHEM_BONDANNOTATIONS>
10  11  8
10  36  8
19  21  8
19  23  8
21  24  8
21  26  8
23  27  8
24  25  8
25  27  8
26  28  8
28  29  8
31  39  8
31  41  8
36  40  8
39  43  8
41  44  8
42  43  8
42  44  8
8  24  8
8  29  8
9  11  8
9  40  8

$$$$
