155195305
  -OEChem-09292322412D

 60 64  0     1  0  0  0  0  0999 V2000
    9.2619    3.7951    0.0000 O   0  0  0  0  0  0  0  0  0  0  0  0
    6.7619   -3.2671    0.0000 O   0  0  0  0  0  0  0  0  0  0  0  0
    8.2619    2.0630    0.0000 N   0  0  3  0  0  0  0  0  0  0  0  0
    6.7619   -1.5350    0.0000 N   0  0  0  0  0  0  0  0  0  0  0  0
    4.6783   -3.2058    0.0000 N   0  0  0  0  0  0  0  0  0  0  0  0
   12.2619    3.7951    0.0000 N   0  0  0  0  0  0  0  0  0  0  0  0
   13.7619    2.9291    0.0000 N   0  0  0  0  0  0  0  0  0  0  0  0
    8.2619    0.3310    0.0000 C   0  0  3  0  0  0  0  0  0  0  0  0
    8.2619   -0.6690    0.0000 C   0  0  3  0  0  0  0  0  0  0  0  0
    9.1279   -0.1690    0.0000 C   0  0  0  0  0  0  0  0  0  0  0  0
    7.7619    1.1970    0.0000 C   0  0  0  0  0  0  0  0  0  0  0  0
    7.7619   -1.5350    0.0000 C   0  0  0  0  0  0  0  0  0  0  0  0
    7.7619    2.9291    0.0000 C   0  0  2  0  0  0  0  0  0  0  0  0
    9.2619    2.0630    0.0000 C   0  0  0  0  0  0  0  0  0  0  0  0
    9.7619    2.9291    0.0000 C   0  0  1  0  0  0  0  0  0  0  0  0
    8.2619    3.7951    0.0000 C   0  0  0  0  0  0  0  0  0  0  0  0
    6.7619    2.9291    0.0000 C   0  0  0  0  0  0  0  0  0  0  0  0
    6.2619   -2.4010    0.0000 C   0  0  0  0  0  0  0  0  0  0  0  0
   10.7619    2.9291    0.0000 C   0  0  0  0  0  0  0  0  0  0  0  0
    5.2619   -2.4010    0.0000 C   0  0  0  0  0  0  0  0  0  0  0  0
   11.2619    2.0630    0.0000 C   0  0  0  0  0  0  0  0  0  0  0  0
   11.2619    3.7951    0.0000 C   0  0  0  0  0  0  0  0  0  0  0  0
    4.6783   -1.5963    0.0000 C   0  0  0  0  0  0  0  0  0  0  0  0
   12.2619    2.0630    0.0000 C   0  0  0  0  0  0  0  0  0  0  0  0
    3.7320   -2.9010    0.0000 C   0  0  0  0  0  0  0  0  0  0  0  0
    3.7320   -1.9010    0.0000 C   0  0  0  0  0  0  0  0  0  0  0  0
   12.7619    2.9291    0.0000 C   0  0  0  0  0  0  0  0  0  0  0  0
    2.8660   -3.4010    0.0000 C   0  0  0  0  0  0  0  0  0  0  0  0
    2.8660   -1.4010    0.0000 C   0  0  0  0  0  0  0  0  0  0  0  0
    2.0000   -2.9010    0.0000 C   0  0  0  0  0  0  0  0  0  0  0  0
    2.0000   -1.9010    0.0000 C   0  0  0  0  0  0  0  0  0  0  0  0
    8.7003    0.7694    0.0000 H   0  0  0  0  0  0  0  0  0  0  0  0
    8.7003   -1.1074    0.0000 H   0  0  0  0  0  0  0  0  0  0  0  0
    9.5264   -0.6439    0.0000 H   0  0  0  0  0  0  0  0  0  0  0  0
    9.5264    0.3060    0.0000 H   0  0  0  0  0  0  0  0  0  0  0  0
    7.2869    1.5956    0.0000 H   0  0  0  0  0  0  0  0  0  0  0  0
    7.2869    0.7985    0.0000 H   0  0  0  0  0  0  0  0  0  0  0  0
    7.6542   -2.1456    0.0000 H   0  0  0  0  0  0  0  0  0  0  0  0
    8.3445   -1.7471    0.0000 H   0  0  0  0  0  0  0  0  0  0  0  0
    7.4519    2.3921    0.0000 H   0  0  0  0  0  0  0  0  0  0  0  0
    9.1542    1.4525    0.0000 H   0  0  0  0  0  0  0  0  0  0  0  0
    9.8445    1.8510    0.0000 H   0  0  0  0  0  0  0  0  0  0  0  0
    6.4519   -0.9981    0.0000 H   0  0  0  0  0  0  0  0  0  0  0  0
   10.0719    3.4660    0.0000 H   0  0  0  0  0  0  0  0  0  0  0  0
    8.3695    4.4057    0.0000 H   0  0  0  0  0  0  0  0  0  0  0  0
    7.6793    4.0072    0.0000 H   0  0  0  0  0  0  0  0  0  0  0  0
    6.7619    3.5491    0.0000 H   0  0  0  0  0  0  0  0  0  0  0  0
    6.1419    2.9291    0.0000 H   0  0  0  0  0  0  0  0  0  0  0  0
    6.7619    2.3091    0.0000 H   0  0  0  0  0  0  0  0  0  0  0  0
   10.9519    1.5261    0.0000 H   0  0  0  0  0  0  0  0  0  0  0  0
   10.9519    4.3320    0.0000 H   0  0  0  0  0  0  0  0  0  0  0  0
    4.8709   -3.7951    0.0000 H   0  0  0  0  0  0  0  0  0  0  0  0
    4.8709   -1.0070    0.0000 H   0  0  0  0  0  0  0  0  0  0  0  0
   12.5719    1.5261    0.0000 H   0  0  0  0  0  0  0  0  0  0  0  0
    2.8660   -4.0210    0.0000 H   0  0  0  0  0  0  0  0  0  0  0  0
    2.8660   -0.7810    0.0000 H   0  0  0  0  0  0  0  0  0  0  0  0
   14.0719    3.4660    0.0000 H   0  0  0  0  0  0  0  0  0  0  0  0
   14.0719    2.3921    0.0000 H   0  0  0  0  0  0  0  0  0  0  0  0
    1.4631   -3.2110    0.0000 H   0  0  0  0  0  0  0  0  0  0  0  0
    1.4631   -1.5910    0.0000 H   0  0  0  0  0  0  0  0  0  0  0  0
  1 15  1  0  0  0  0
  1 16  1  0  0  0  0
  2 18  2  0  0  0  0
  3 11  1  0  0  0  0
  3 13  1  0  0  0  0
  3 14  1  0  0  0  0
  4 12  1  0  0  0  0
  4 18  1  0  0  0  0
  4 43  1  0  0  0  0
  5 20  1  0  0  0  0
  5 25  1  0  0  0  0
  5 52  1  0  0  0  0
  6 22  1  0  0  0  0
  6 27  2  0  0  0  0
  7 27  1  0  0  0  0
  7 57  1  0  0  0  0
  7 58  1  0  0  0  0
  8  9  1  0  0  0  0
  8 10  1  0  0  0  0
  8 11  1  0  0  0  0
  8 32  1  0  0  0  0
  9 10  1  0  0  0  0
  9 12  1  0  0  0  0
  9 33  1  0  0  0  0
 10 34  1  0  0  0  0
 10 35  1  0  0  0  0
 11 36  1  0  0  0  0
 11 37  1  0  0  0  0
 12 38  1  0  0  0  0
 12 39  1  0  0  0  0
 13 16  1  0  0  0  0
 13 17  1  1  0  0  0
 13 40  1  0  0  0  0
 14 15  1  0  0  0  0
 14 41  1  0  0  0  0
 14 42  1  0  0  0  0
 15 19  1  6  0  0  0
 15 44  1  0  0  0  0
 16 45  1  0  0  0  0
 16 46  1  0  0  0  0
 17 47  1  0  0  0  0
 17 48  1  0  0  0  0
 17 49  1  0  0  0  0
 18 20  1  0  0  0  0
 19 21  1  0  0  0  0
 19 22  2  0  0  0  0
 20 23  2  0  0  0  0
 21 24  2  0  0  0  0
 21 50  1  0  0  0  0
 22 51  1  0  0  0  0
 23 26  1  0  0  0  0
 23 53  1  0  0  0  0
 24 27  1  0  0  0  0
 24 54  1  0  0  0  0
 25 26  1  0  0  0  0
 25 28  2  0  0  0  0
 26 29  2  0  0  0  0
 28 30  1  0  0  0  0
 28 55  1  0  0  0  0
 29 31  1  0  0  0  0
 29 56  1  0  0  0  0
 30 31  2  0  0  0  0
 30 59  1  0  0  0  0
 31 60  1  0  0  0  0
M  END
> <PUBCHEM_COMPOUND_CID>
155195305

> <PUBCHEM_COMPOUND_CANONICALIZED>
1

> <PUBCHEM_CACTVS_COMPLEXITY>
633

> <PUBCHEM_CACTVS_HBOND_ACCEPTOR>
5

> <PUBCHEM_CACTVS_HBOND_DONOR>
3

> <PUBCHEM_CACTVS_ROTATABLE_BOND>
6

> <PUBCHEM_CACTVS_SUBSKEYS>
AAADceB7sAAAAAAAAAAAAAAAGAAAAWAAAAA8WIAAAAAAAFgB/AAAHgAQAAAADTzhngY/8PPJlACoAzd3dACCgCk3AiAI2aG4bNiKZvLAtbmXMQhm1gPY6aeYmYKeAAAAAAACAAAAAAAAAAQAAAAAAAAAAA==

> <PUBCHEM_IUPAC_OPENEYE_NAME>
N-[[2-[[(2R,5S)-2-(6-amino-3-pyridyl)-5-methyl-morpholin-4-yl]methyl]cyclopropyl]methyl]-1H-indole-2-carboxamide

> <PUBCHEM_IUPAC_CAS_NAME>
N-[[2-[[(2R,5S)-2-(6-amino-3-pyridinyl)-5-methyl-4-morpholinyl]methyl]cyclopropyl]methyl]-1H-indole-2-carboxamide

> <PUBCHEM_IUPAC_NAME_MARKUP>
<I>N</I>-[[2-[[(2<I>R</I>,5<I>S</I>)-2-(6-aminopyridin-3-yl)-5-methylmorpholin-4-yl]methyl]cyclopropyl]methyl]-1<I>H</I>-indole-2-carboxamide

> <PUBCHEM_IUPAC_NAME>
N-[[2-[[(2R,5S)-2-(6-aminopyridin-3-yl)-5-methylmorpholin-4-yl]methyl]cyclopropyl]methyl]-1H-indole-2-carboxamide

> <PUBCHEM_IUPAC_SYSTEMATIC_NAME>
N-[[2-[[(2R,5S)-2-(6-azanylpyridin-3-yl)-5-methyl-morpholin-4-yl]methyl]cyclopropyl]methyl]-1H-indole-2-carboxamide

> <PUBCHEM_IUPAC_TRADITIONAL_NAME>
N-[[2-[[(2R,5S)-2-(6-amino-3-pyridyl)-5-methyl-morpholino]methyl]cyclopropyl]methyl]-1H-indole-2-carboxamide

> <PUBCHEM_IUPAC_INCHI>
InChI=1S/C24H29N5O2/c1-15-14-31-22(17-6-7-23(25)26-10-17)13-29(15)12-19-8-18(19)11-27-24(30)21-9-16-4-2-3-5-20(16)28-21/h2-7,9-10,15,18-19,22,28H,8,11-14H2,1H3,(H2,25,26)(H,27,30)/t15-,18?,19?,22-/m0/s1

> <PUBCHEM_IUPAC_INCHIKEY>
QKMCUEOKZNEZFG-FIHHNCHPSA-N

> <PUBCHEM_XLOGP3_AA>
2.5

> <PUBCHEM_EXACT_MASS>
419.23212518

> <PUBCHEM_MOLECULAR_FORMULA>
C24H29N5O2

> <PUBCHEM_MOLECULAR_WEIGHT>
419.5

> <PUBCHEM_OPENEYE_CAN_SMILES>
CC1COC(CN1CC2CC2CNC(=O)C3=CC4=CC=CC=C4N3)C5=CN=C(C=C5)N

> <PUBCHEM_OPENEYE_ISO_SMILES>
C[C@H]1CO[C@@H](CN1CC2CC2CNC(=O)C3=CC4=CC=CC=C4N3)C5=CN=C(C=C5)N

> <PUBCHEM_CACTVS_TPSA>
96.3

> <PUBCHEM_MONOISOTOPIC_WEIGHT>
419.23212518

> <PUBCHEM_TOTAL_CHARGE>
0

> <PUBCHEM_HEAVY_ATOM_COUNT>
31

> <PUBCHEM_ATOM_DEF_STEREO_COUNT>
2

> <PUBCHEM_ATOM_UDEF_STEREO_COUNT>
2

> <PUBCHEM_BOND_DEF_STEREO_COUNT>
0

> <PUBCHEM_BOND_UDEF_STEREO_COUNT>
0

> <PUBCHEM_ISOTOPIC_ATOM_COUNT>
0

> <PUBCHEM_COMPONENT_COUNT>
1

> <PUBCHEM_CACTVS_TAUTO_COUNT>
-1

> <PUBCHEM_COORDINATE_TYPE>
1
5
255

> <PUBCHEM_BONDANNOTATIONS>
13  17  5
15  19  6
19  21  8
19  22  8
20  23  8
21  24  8
23  26  8
24  27  8
25  26  8
25  28  8
26  29  8
28  30  8
29  31  8
30  31  8
5  20  8
5  25  8
6  22  8
6  27  8
8  11  3
9  12  3

$$$$
