155522920
  -OEChem-09292322462D

 56 60  0     0  0  0  0  0  0999 V2000
    7.0200    2.2243    0.0000 S   0  0  0  0  0  0  0  0  0  0  0  0
    6.5200    3.0903    0.0000 O   0  0  0  0  0  0  0  0  0  0  0  0
    7.5200    1.3582    0.0000 O   0  0  0  0  0  0  0  0  0  0  0  0
    2.3107    2.7480    0.0000 O   0  0  0  0  0  0  0  0  0  0  0  0
    6.4162   -2.6098    0.0000 O   0  0  0  0  0  0  0  0  0  0  0  0
    6.1540    1.7243    0.0000 N   0  0  0  0  0  0  0  0  0  0  0  0
    3.5970   -1.5948    0.0000 N   0  0  0  0  0  0  0  0  0  0  0  0
    5.1785   -1.2529    0.0000 N   0  0  0  0  0  0  0  0  0  0  0  0
    4.7233   -2.9758    0.0000 N   0  0  0  0  0  0  0  0  0  0  0  0
    5.2462    2.1294    0.0000 C   0  0  0  0  0  0  0  0  0  0  0  0
    4.5783    1.3851    0.0000 C   0  0  0  0  0  0  0  0  0  0  0  0
    5.0791    0.5263    0.0000 C   0  0  0  0  0  0  0  0  0  0  0  0
    6.0509    0.7355    0.0000 C   0  0  0  0  0  0  0  0  0  0  0  0
    4.6755   -0.3886    0.0000 C   0  0  0  0  0  0  0  0  0  0  0  0
    7.8860    2.7243    0.0000 C   0  0  0  0  0  0  0  0  0  0  0  0
    3.5998    1.5913    0.0000 C   0  0  0  0  0  0  0  0  0  0  0  0
    4.9355    3.0799    0.0000 C   0  0  0  0  0  0  0  0  0  0  0  0
    3.6981   -0.5999    0.0000 C   0  0  0  0  0  0  0  0  0  0  0  0
    3.2892    2.5418    0.0000 C   0  0  0  0  0  0  0  0  0  0  0  0
    3.9570    3.2861    0.0000 C   0  0  0  0  0  0  0  0  0  0  0  0
    8.7520    2.2243    0.0000 C   0  0  0  0  0  0  0  0  0  0  0  0
    7.8860    3.7243    0.0000 C   0  0  0  0  0  0  0  0  0  0  0  0
    9.6181    2.7243    0.0000 C   0  0  0  0  0  0  0  0  0  0  0  0
    9.6181    3.7243    0.0000 C   0  0  0  0  0  0  0  0  0  0  0  0
    4.5120   -1.9984    0.0000 C   0  0  0  0  0  0  0  0  0  0  0  0
    8.7520    4.2243    0.0000 C   0  0  0  0  0  0  0  0  0  0  0  0
    2.9527    0.0666    0.0000 C   0  0  0  0  0  0  0  0  0  0  0  0
   10.5120    2.1896    0.0000 C   0  0  0  0  0  0  0  0  0  0  0  0
   10.5120    4.2589    0.0000 C   0  0  0  0  0  0  0  0  0  0  0  0
   11.4181    2.7034    0.0000 C   0  0  0  0  0  0  0  0  0  0  0  0
   11.4181    3.7451    0.0000 C   0  0  0  0  0  0  0  0  0  0  0  0
    2.0000    3.6986    0.0000 C   0  0  0  0  0  0  0  0  0  0  0  0
    5.6754   -3.2815    0.0000 C   0  0  0  0  0  0  0  0  0  0  0  0
    5.8867   -4.2589    0.0000 C   0  0  0  0  0  0  0  0  0  0  0  0
    6.5124    0.3215    0.0000 H   0  0  0  0  0  0  0  0  0  0  0  0
    3.1858    1.1298    0.0000 H   0  0  0  0  0  0  0  0  0  0  0  0
    5.3496    3.5414    0.0000 H   0  0  0  0  0  0  0  0  0  0  0  0
    3.7644    3.8754    0.0000 H   0  0  0  0  0  0  0  0  0  0  0  0
    8.7520    1.6043    0.0000 H   0  0  0  0  0  0  0  0  0  0  0  0
    7.3491    4.0343    0.0000 H   0  0  0  0  0  0  0  0  0  0  0  0
    3.0612   -1.9066    0.0000 H   0  0  0  0  0  0  0  0  0  0  0  0
    8.7520    4.8443    0.0000 H   0  0  0  0  0  0  0  0  0  0  0  0
    3.3659    0.5288    0.0000 H   0  0  0  0  0  0  0  0  0  0  0  0
    2.4905    0.4799    0.0000 H   0  0  0  0  0  0  0  0  0  0  0  0
    2.5394   -0.3955    0.0000 H   0  0  0  0  0  0  0  0  0  0  0  0
   10.5048    1.5696    0.0000 H   0  0  0  0  0  0  0  0  0  0  0  0
   10.5048    4.8789    0.0000 H   0  0  0  0  0  0  0  0  0  0  0  0
    4.2640   -3.3922    0.0000 H   0  0  0  0  0  0  0  0  0  0  0  0
   11.9538    2.3914    0.0000 H   0  0  0  0  0  0  0  0  0  0  0  0
   11.9538    4.0572    0.0000 H   0  0  0  0  0  0  0  0  0  0  0  0
    2.5893    3.8912    0.0000 H   0  0  0  0  0  0  0  0  0  0  0  0
    1.8074    4.2879    0.0000 H   0  0  0  0  0  0  0  0  0  0  0  0
    1.4107    3.5059    0.0000 H   0  0  0  0  0  0  0  0  0  0  0  0
    5.2807   -4.3899    0.0000 H   0  0  0  0  0  0  0  0  0  0  0  0
    6.0177   -4.8649    0.0000 H   0  0  0  0  0  0  0  0  0  0  0  0
    6.4927   -4.1279    0.0000 H   0  0  0  0  0  0  0  0  0  0  0  0
  1  2  2  0  0  0  0
  1  3  2  0  0  0  0
  1  6  1  0  0  0  0
  1 15  1  0  0  0  0
  4 19  1  0  0  0  0
  4 32  1  0  0  0  0
  5 33  2  0  0  0  0
  6 10  1  0  0  0  0
  6 13  1  0  0  0  0
  7 18  1  0  0  0  0
  7 25  1  0  0  0  0
  7 41  1  0  0  0  0
  8 14  1  0  0  0  0
  8 25  2  0  0  0  0
  9 25  1  0  0  0  0
  9 33  1  0  0  0  0
  9 48  1  0  0  0  0
 10 11  2  0  0  0  0
 10 17  1  0  0  0  0
 11 12  1  0  0  0  0
 11 16  1  0  0  0  0
 12 13  2  0  0  0  0
 12 14  1  0  0  0  0
 13 35  1  0  0  0  0
 14 18  2  0  0  0  0
 15 21  2  0  0  0  0
 15 22  1  0  0  0  0
 16 19  2  0  0  0  0
 16 36  1  0  0  0  0
 17 20  2  0  0  0  0
 17 37  1  0  0  0  0
 18 27  1  0  0  0  0
 19 20  1  0  0  0  0
 20 38  1  0  0  0  0
 21 23  1  0  0  0  0
 21 39  1  0  0  0  0
 22 26  2  0  0  0  0
 22 40  1  0  0  0  0
 23 24  1  0  0  0  0
 23 28  2  0  0  0  0
 24 26  1  0  0  0  0
 24 29  2  0  0  0  0
 26 42  1  0  0  0  0
 27 43  1  0  0  0  0
 27 44  1  0  0  0  0
 27 45  1  0  0  0  0
 28 30  1  0  0  0  0
 28 46  1  0  0  0  0
 29 31  1  0  0  0  0
 29 47  1  0  0  0  0
 30 31  2  0  0  0  0
 30 49  1  0  0  0  0
 31 50  1  0  0  0  0
 32 51  1  0  0  0  0
 32 52  1  0  0  0  0
 32 53  1  0  0  0  0
 33 34  1  0  0  0  0
 34 54  1  0  0  0  0
 34 55  1  0  0  0  0
 34 56  1  0  0  0  0
M  END
> <PUBCHEM_COMPOUND_CID>
155522920

> <PUBCHEM_COMPOUND_CANONICALIZED>
1

> <PUBCHEM_CACTVS_COMPLEXITY>
848

> <PUBCHEM_CACTVS_HBOND_ACCEPTOR>
5

> <PUBCHEM_CACTVS_HBOND_DONOR>
2

> <PUBCHEM_CACTVS_ROTATABLE_BOND>
5

> <PUBCHEM_CACTVS_SUBSKEYS>
AAADceB7uABAAAAAAAAAAAAAAAAAAWLAAAAwYMAAAAAAAFjB/AAAHgQQQAAADAzB3gY/1/bJlAKoAzV3dHDCiD2xMqAJ2Tg+fJiMbuLE+ZuUMChs0RPI6Cew0PMOkEABgAASAAAggAMAACQAAAAAAAAAAA==

> <PUBCHEM_IUPAC_OPENEYE_NAME>
N-[4-[5-methoxy-1-(2-naphthylsulfonyl)indol-3-yl]-5-methyl-1H-imidazol-2-yl]acetamide

> <PUBCHEM_IUPAC_CAS_NAME>
N-[4-[5-methoxy-1-(2-naphthalenylsulfonyl)-3-indolyl]-5-methyl-1H-imidazol-2-yl]acetamide

> <PUBCHEM_IUPAC_NAME_MARKUP>
<I>N</I>-[4-(5-methoxy-1-naphthalen-2-ylsulfonylindol-3-yl)-5-methyl-1<I>H</I>-imidazol-2-yl]acetamide

> <PUBCHEM_IUPAC_NAME>
N-[4-(5-methoxy-1-naphthalen-2-ylsulfonylindol-3-yl)-5-methyl-1H-imidazol-2-yl]acetamide

> <PUBCHEM_IUPAC_SYSTEMATIC_NAME>
N-[4-(5-methoxy-1-naphthalen-2-ylsulfonyl-indol-3-yl)-5-methyl-1H-imidazol-2-yl]ethanamide

> <PUBCHEM_IUPAC_TRADITIONAL_NAME>
N-[4-[5-methoxy-1-(2-naphthylsulfonyl)indol-3-yl]-5-methyl-1H-imidazol-2-yl]acetamide

> <PUBCHEM_IUPAC_INCHI>
InChI=1S/C25H22N4O4S/c1-15-24(28-25(26-15)27-16(2)30)22-14-29(23-11-9-19(33-3)13-21(22)23)34(31,32)20-10-8-17-6-4-5-7-18(17)12-20/h4-14H,1-3H3,(H2,26,27,28,30)

> <PUBCHEM_IUPAC_INCHIKEY>
QNUXFMXHHDMGCJ-UHFFFAOYSA-N

> <PUBCHEM_XLOGP3_AA>
4.2

> <PUBCHEM_EXACT_MASS>
474.13617637

> <PUBCHEM_MOLECULAR_FORMULA>
C25H22N4O4S

> <PUBCHEM_MOLECULAR_WEIGHT>
474.5

> <PUBCHEM_OPENEYE_CAN_SMILES>
CC1=C(N=C(N1)NC(=O)C)C2=CN(C3=C2C=C(C=C3)OC)S(=O)(=O)C4=CC5=CC=CC=C5C=C4

> <PUBCHEM_OPENEYE_ISO_SMILES>
CC1=C(N=C(N1)NC(=O)C)C2=CN(C3=C2C=C(C=C3)OC)S(=O)(=O)C4=CC5=CC=CC=C5C=C4

> <PUBCHEM_CACTVS_TPSA>
115

> <PUBCHEM_MONOISOTOPIC_WEIGHT>
474.13617637

> <PUBCHEM_TOTAL_CHARGE>
0

> <PUBCHEM_HEAVY_ATOM_COUNT>
34

> <PUBCHEM_ATOM_DEF_STEREO_COUNT>
0

> <PUBCHEM_ATOM_UDEF_STEREO_COUNT>
0

> <PUBCHEM_BOND_DEF_STEREO_COUNT>
0

> <PUBCHEM_BOND_UDEF_STEREO_COUNT>
0

> <PUBCHEM_ISOTOPIC_ATOM_COUNT>
0

> <PUBCHEM_COMPONENT_COUNT>
1

> <PUBCHEM_CACTVS_TAUTO_COUNT>
-1

> <PUBCHEM_COORDINATE_TYPE>
1
5
255

> <PUBCHEM_BONDANNOTATIONS>
10  11  8
10  17  8
11  12  8
11  16  8
12  13  8
14  18  8
15  21  8
15  22  8
16  19  8
17  20  8
19  20  8
21  23  8
22  26  8
23  24  8
23  28  8
24  26  8
24  29  8
28  30  8
29  31  8
30  31  8
6  10  8
6  13  8
7  18  8
7  25  8
8  14  8
8  25  8

$$$$
