56944665
  -OEChem-09292322082D

 62 66  0     0  0  0  0  0  0999 V2000
    8.7710    3.4028    0.0000 S   0  0  0  0  0  0  0  0  0  0  0  0
    2.5398   -6.4375    0.0000 F   0  0  0  0  0  0  0  0  0  0  0  0
    2.0000   -2.9291    0.0000 O   0  0  0  0  0  0  0  0  0  0  0  0
    7.7710    3.4028    0.0000 O   0  0  0  0  0  0  0  0  0  0  0  0
    9.7710    3.4028    0.0000 O   0  0  0  0  0  0  0  0  0  0  0  0
    6.1730   -1.0972    0.0000 N   0  0  0  0  0  0  0  0  0  0  0  0
    2.6671   -2.1921    0.0000 N   0  0  0  0  0  0  0  0  0  0  0  0
    8.7710    2.4028    0.0000 N   0  0  0  0  0  0  0  0  0  0  0  0
    4.4409   -2.0972    0.0000 C   0  0  0  0  0  0  0  0  0  0  0  0
    4.4409   -1.0972    0.0000 C   0  0  0  0  0  0  0  0  0  0  0  0
    5.3069   -2.5972    0.0000 C   0  0  0  0  0  0  0  0  0  0  0  0
    5.3069   -0.5972    0.0000 C   0  0  0  0  0  0  0  0  0  0  0  0
    6.1730   -2.0972    0.0000 C   0  0  0  0  0  0  0  0  0  0  0  0
    7.0390   -0.5972    0.0000 C   0  0  0  0  0  0  0  0  0  0  0  0
    3.5749   -2.5972    0.0000 C   0  0  0  0  0  0  0  0  0  0  0  0
    7.0390    0.4028    0.0000 C   0  0  0  0  0  0  0  0  0  0  0  0
    3.4718   -3.5859    0.0000 C   0  0  0  0  0  0  0  0  0  0  0  0
    7.9050    0.9028    0.0000 C   0  0  0  0  0  0  0  0  0  0  0  0
    7.9050    1.9028    0.0000 C   0  0  0  0  0  0  0  0  0  0  0  0
    2.4933   -3.7921    0.0000 C   0  0  0  0  0  0  0  0  0  0  0  0
    4.1397   -4.3302    0.0000 C   0  0  0  0  0  0  0  0  0  0  0  0
    2.1827   -4.7426    0.0000 C   0  0  0  0  0  0  0  0  0  0  0  0
    3.8290   -5.2807    0.0000 C   0  0  0  0  0  0  0  0  0  0  0  0
    2.8505   -5.4870    0.0000 C   0  0  0  0  0  0  0  0  0  0  0  0
    8.7710    4.4028    0.0000 C   0  0  0  0  0  0  0  0  0  0  0  0
    9.6370    4.9028    0.0000 C   0  0  0  0  0  0  0  0  0  0  0  0
    7.9050    4.9028    0.0000 C   0  0  0  0  0  0  0  0  0  0  0  0
    9.6370    5.9028    0.0000 C   0  0  0  0  0  0  0  0  0  0  0  0
   10.5310    4.3682    0.0000 C   0  0  0  0  0  0  0  0  0  0  0  0
    7.9050    5.9028    0.0000 C   0  0  0  0  0  0  0  0  0  0  0  0
    8.7710    6.4028    0.0000 C   0  0  0  0  0  0  0  0  0  0  0  0
   10.5310    6.4375    0.0000 C   0  0  0  0  0  0  0  0  0  0  0  0
   11.4371    4.8820    0.0000 C   0  0  0  0  0  0  0  0  0  0  0  0
   11.4371    5.9236    0.0000 C   0  0  0  0  0  0  0  0  0  0  0  0
    4.4409   -2.7172    0.0000 H   0  0  0  0  0  0  0  0  0  0  0  0
    4.2288   -0.5146    0.0000 H   0  0  0  0  0  0  0  0  0  0  0  0
    3.8303   -1.2048    0.0000 H   0  0  0  0  0  0  0  0  0  0  0  0
    4.9084   -3.0721    0.0000 H   0  0  0  0  0  0  0  0  0  0  0  0
    5.7054   -3.0721    0.0000 H   0  0  0  0  0  0  0  0  0  0  0  0
    5.7054   -0.1222    0.0000 H   0  0  0  0  0  0  0  0  0  0  0  0
    4.9084   -0.1222    0.0000 H   0  0  0  0  0  0  0  0  0  0  0  0
    6.3850   -2.6798    0.0000 H   0  0  0  0  0  0  0  0  0  0  0  0
    6.7835   -1.9895    0.0000 H   0  0  0  0  0  0  0  0  0  0  0  0
    7.2510   -1.1798    0.0000 H   0  0  0  0  0  0  0  0  0  0  0  0
    7.6496   -0.4895    0.0000 H   0  0  0  0  0  0  0  0  0  0  0  0
    6.8269    0.9854    0.0000 H   0  0  0  0  0  0  0  0  0  0  0  0
    6.4284    0.2952    0.0000 H   0  0  0  0  0  0  0  0  0  0  0  0
    8.1171    0.3202    0.0000 H   0  0  0  0  0  0  0  0  0  0  0  0
    8.5156    1.0105    0.0000 H   0  0  0  0  0  0  0  0  0  0  0  0
    7.6930    2.4854    0.0000 H   0  0  0  0  0  0  0  0  0  0  0  0
    7.2944    1.7952    0.0000 H   0  0  0  0  0  0  0  0  0  0  0  0
    4.7463   -4.2024    0.0000 H   0  0  0  0  0  0  0  0  0  0  0  0
    9.3080    2.0928    0.0000 H   0  0  0  0  0  0  0  0  0  0  0  0
    1.5760   -4.8705    0.0000 H   0  0  0  0  0  0  0  0  0  0  0  0
    4.2431   -5.7422    0.0000 H   0  0  0  0  0  0  0  0  0  0  0  0
    7.3681    4.5928    0.0000 H   0  0  0  0  0  0  0  0  0  0  0  0
   10.5238    3.7482    0.0000 H   0  0  0  0  0  0  0  0  0  0  0  0
    7.3681    6.2128    0.0000 H   0  0  0  0  0  0  0  0  0  0  0  0
    8.7710    7.0228    0.0000 H   0  0  0  0  0  0  0  0  0  0  0  0
   10.5238    7.0574    0.0000 H   0  0  0  0  0  0  0  0  0  0  0  0
   11.9728    4.5699    0.0000 H   0  0  0  0  0  0  0  0  0  0  0  0
   11.9728    6.2357    0.0000 H   0  0  0  0  0  0  0  0  0  0  0  0
  1  4  2  0  0  0  0
  1  5  2  0  0  0  0
  1  8  1  0  0  0  0
  1 25  1  0  0  0  0
  2 24  1  0  0  0  0
  3  7  1  0  0  0  0
  3 20  1  0  0  0  0
  6 12  1  0  0  0  0
  6 13  1  0  0  0  0
  6 14  1  0  0  0  0
  7 15  2  0  0  0  0
  8 19  1  0  0  0  0
  8 53  1  0  0  0  0
  9 10  1  0  0  0  0
  9 11  1  0  0  0  0
  9 15  1  0  0  0  0
  9 35  1  0  0  0  0
 10 12  1  0  0  0  0
 10 36  1  0  0  0  0
 10 37  1  0  0  0  0
 11 13  1  0  0  0  0
 11 38  1  0  0  0  0
 11 39  1  0  0  0  0
 12 40  1  0  0  0  0
 12 41  1  0  0  0  0
 13 42  1  0  0  0  0
 13 43  1  0  0  0  0
 14 16  1  0  0  0  0
 14 44  1  0  0  0  0
 14 45  1  0  0  0  0
 15 17  1  0  0  0  0
 16 18  1  0  0  0  0
 16 46  1  0  0  0  0
 16 47  1  0  0  0  0
 17 20  2  0  0  0  0
 17 21  1  0  0  0  0
 18 19  1  0  0  0  0
 18 48  1  0  0  0  0
 18 49  1  0  0  0  0
 19 50  1  0  0  0  0
 19 51  1  0  0  0  0
 20 22  1  0  0  0  0
 21 23  2  0  0  0  0
 21 52  1  0  0  0  0
 22 24  2  0  0  0  0
 22 54  1  0  0  0  0
 23 24  1  0  0  0  0
 23 55  1  0  0  0  0
 25 26  1  0  0  0  0
 25 27  2  0  0  0  0
 26 28  1  0  0  0  0
 26 29  2  0  0  0  0
 27 30  1  0  0  0  0
 27 56  1  0  0  0  0
 28 31  1  0  0  0  0
 28 32  2  0  0  0  0
 29 33  1  0  0  0  0
 29 57  1  0  0  0  0
 30 31  2  0  0  0  0
 30 58  1  0  0  0  0
 31 59  1  0  0  0  0
 32 34  1  0  0  0  0
 32 60  1  0  0  0  0
 33 34  2  0  0  0  0
 33 61  1  0  0  0  0
 34 62  1  0  0  0  0
M  END
> <PUBCHEM_COMPOUND_CID>
56944665

> <PUBCHEM_COMPOUND_CANONICALIZED>
1

> <PUBCHEM_CACTVS_COMPLEXITY>
755

> <PUBCHEM_CACTVS_HBOND_ACCEPTOR>
7

> <PUBCHEM_CACTVS_HBOND_DONOR>
1

> <PUBCHEM_CACTVS_ROTATABLE_BOND>
8

> <PUBCHEM_CACTVS_SUBSKEYS>
AAADceB7MQBAAAAAAAAAAAAAAAAAAWAAAAA8YMEAAAAAAFjB9AAAHwQUQAAADQzB3gwwh9NQAAKpA6RyQnDCABAkIAAomLk+TNoIJrqAlZOEMYBm0BmIyceYyOCOgAAAgAAcAAAAAAEAADgAAAAAAAAAAA==

> <PUBCHEM_IUPAC_OPENEYE_NAME>
N-[4-[4-(6-fluoro-1,2-benzoxazol-3-yl)-1-piperidyl]butyl]naphthalene-1-sulfonamide

> <PUBCHEM_IUPAC_CAS_NAME>
N-[4-[4-(6-fluoro-1,2-benzoxazol-3-yl)-1-piperidinyl]butyl]-1-naphthalenesulfonamide

> <PUBCHEM_IUPAC_NAME_MARKUP>
<I>N</I>-[4-[4-(6-fluoro-1,2-benzoxazol-3-yl)piperidin-1-yl]butyl]naphthalene-1-sulfonamide

> <PUBCHEM_IUPAC_NAME>
N-[4-[4-(6-fluoro-1,2-benzoxazol-3-yl)piperidin-1-yl]butyl]naphthalene-1-sulfonamide

> <PUBCHEM_IUPAC_SYSTEMATIC_NAME>
N-[4-[4-(6-fluoranyl-1,2-benzoxazol-3-yl)piperidin-1-yl]butyl]naphthalene-1-sulfonamide

> <PUBCHEM_IUPAC_TRADITIONAL_NAME>
N-[4-[4-(6-fluoroindoxazen-3-yl)piperidino]butyl]naphthalene-1-sulfonamide

> <PUBCHEM_IUPAC_INCHI>
InChI=1S/C26H28FN3O3S/c27-21-10-11-23-24(18-21)33-29-26(23)20-12-16-30(17-13-20)15-4-3-14-28-34(31,32)25-9-5-7-19-6-1-2-8-22(19)25/h1-2,5-11,18,20,28H,3-4,12-17H2

> <PUBCHEM_IUPAC_INCHIKEY>
NLQDMIUSBFMXRV-UHFFFAOYSA-N

> <PUBCHEM_XLOGP3_AA>
5

> <PUBCHEM_EXACT_MASS>
481.18354110

> <PUBCHEM_MOLECULAR_FORMULA>
C26H28FN3O3S

> <PUBCHEM_MOLECULAR_WEIGHT>
481.6

> <PUBCHEM_OPENEYE_CAN_SMILES>
C1CN(CCC1C2=NOC3=C2C=CC(=C3)F)CCCCNS(=O)(=O)C4=CC=CC5=CC=CC=C54

> <PUBCHEM_OPENEYE_ISO_SMILES>
C1CN(CCC1C2=NOC3=C2C=CC(=C3)F)CCCCNS(=O)(=O)C4=CC=CC5=CC=CC=C54

> <PUBCHEM_CACTVS_TPSA>
83.8

> <PUBCHEM_MONOISOTOPIC_WEIGHT>
481.18354110

> <PUBCHEM_TOTAL_CHARGE>
0

> <PUBCHEM_HEAVY_ATOM_COUNT>
34

> <PUBCHEM_ATOM_DEF_STEREO_COUNT>
0

> <PUBCHEM_ATOM_UDEF_STEREO_COUNT>
0

> <PUBCHEM_BOND_DEF_STEREO_COUNT>
0

> <PUBCHEM_BOND_UDEF_STEREO_COUNT>
0

> <PUBCHEM_ISOTOPIC_ATOM_COUNT>
0

> <PUBCHEM_COMPONENT_COUNT>
1

> <PUBCHEM_CACTVS_TAUTO_COUNT>
-1

> <PUBCHEM_COORDINATE_TYPE>
1
5
255

> <PUBCHEM_BONDANNOTATIONS>
15  17  8
17  20  8
17  21  8
20  22  8
21  23  8
22  24  8
23  24  8
25  26  8
25  27  8
26  28  8
26  29  8
27  30  8
28  31  8
28  32  8
29  33  8
3  20  8
3  7  8
30  31  8
32  34  8
33  34  8
7  15  8

$$$$
