155560484
  -OEChem-09292322092D

 57 59  0     0  0  0  0  0  0999 V2000
    2.8660   -6.6651    0.0000 F   0  0  0  0  0  0  0  0  0  0  0  0
    4.0981    3.2010    0.0000 O   0  0  0  0  0  0  0  0  0  0  0  0
    2.0000   -2.1651    0.0000 O   0  0  0  0  0  0  0  0  0  0  0  0
    4.5981    0.3349    0.0000 N   0  0  0  0  0  0  0  0  0  0  0  0
    6.5981    5.7990    0.0000 N   0  0  0  0  0  0  0  0  0  0  0  0
    4.5981    2.3349    0.0000 C   0  0  0  0  0  0  0  0  0  0  0  0
    5.4641    1.8349    0.0000 C   0  0  0  0  0  0  0  0  0  0  0  0
    3.7320    1.8349    0.0000 C   0  0  0  0  0  0  0  0  0  0  0  0
    5.4641    0.8349    0.0000 C   0  0  0  0  0  0  0  0  0  0  0  0
    3.7320    0.8349    0.0000 C   0  0  0  0  0  0  0  0  0  0  0  0
    5.0981    3.2010    0.0000 C   0  0  0  0  0  0  0  0  0  0  0  0
    4.5981   -0.6651    0.0000 C   0  0  0  0  0  0  0  0  0  0  0  0
    3.7320   -1.1651    0.0000 C   0  0  0  0  0  0  0  0  0  0  0  0
    4.5981    4.0670    0.0000 C   0  0  0  0  0  0  0  0  0  0  0  0
    6.0981    3.2010    0.0000 C   0  0  0  0  0  0  0  0  0  0  0  0
    3.7320   -2.1651    0.0000 C   0  0  0  0  0  0  0  0  0  0  0  0
    5.0981    4.9330    0.0000 C   0  0  0  0  0  0  0  0  0  0  0  0
    6.5981    4.0670    0.0000 C   0  0  0  0  0  0  0  0  0  0  0  0
    6.0981    4.9330    0.0000 C   0  0  0  0  0  0  0  0  0  0  0  0
    2.8660   -2.6651    0.0000 C   0  0  0  0  0  0  0  0  0  0  0  0
    2.8660   -3.6651    0.0000 C   0  0  0  0  0  0  0  0  0  0  0  0
    7.5981    5.7990    0.0000 C   0  0  0  0  0  0  0  0  0  0  0  0
    6.0981    6.6651    0.0000 C   0  0  0  0  0  0  0  0  0  0  0  0
    3.7320   -4.1651    0.0000 C   0  0  0  0  0  0  0  0  0  0  0  0
    2.0000   -4.1651    0.0000 C   0  0  0  0  0  0  0  0  0  0  0  0
    3.7320   -5.1651    0.0000 C   0  0  0  0  0  0  0  0  0  0  0  0
    2.0000   -5.1651    0.0000 C   0  0  0  0  0  0  0  0  0  0  0  0
    2.8660   -5.6651    0.0000 C   0  0  0  0  0  0  0  0  0  0  0  0
    6.0747    1.7273    0.0000 H   0  0  0  0  0  0  0  0  0  0  0  0
    5.6762    2.4176    0.0000 H   0  0  0  0  0  0  0  0  0  0  0  0
    3.5200    2.4176    0.0000 H   0  0  0  0  0  0  0  0  0  0  0  0
    3.1215    1.7273    0.0000 H   0  0  0  0  0  0  0  0  0  0  0  0
    5.6762    0.2523    0.0000 H   0  0  0  0  0  0  0  0  0  0  0  0
    6.0747    0.9426    0.0000 H   0  0  0  0  0  0  0  0  0  0  0  0
    3.1215    0.9426    0.0000 H   0  0  0  0  0  0  0  0  0  0  0  0
    3.5200    0.2523    0.0000 H   0  0  0  0  0  0  0  0  0  0  0  0
    4.8101   -1.2477    0.0000 H   0  0  0  0  0  0  0  0  0  0  0  0
    5.2087   -0.5574    0.0000 H   0  0  0  0  0  0  0  0  0  0  0  0
    3.5200   -0.5825    0.0000 H   0  0  0  0  0  0  0  0  0  0  0  0
    3.1215   -1.2727    0.0000 H   0  0  0  0  0  0  0  0  0  0  0  0
    3.4781    3.2010    0.0000 H   0  0  0  0  0  0  0  0  0  0  0  0
    3.9781    4.0670    0.0000 H   0  0  0  0  0  0  0  0  0  0  0  0
    6.4081    2.6640    0.0000 H   0  0  0  0  0  0  0  0  0  0  0  0
    3.9441   -2.7477    0.0000 H   0  0  0  0  0  0  0  0  0  0  0  0
    4.3426   -2.0574    0.0000 H   0  0  0  0  0  0  0  0  0  0  0  0
    4.7881    5.4700    0.0000 H   0  0  0  0  0  0  0  0  0  0  0  0
    7.2181    4.0670    0.0000 H   0  0  0  0  0  0  0  0  0  0  0  0
    7.5981    5.1790    0.0000 H   0  0  0  0  0  0  0  0  0  0  0  0
    8.2181    5.7990    0.0000 H   0  0  0  0  0  0  0  0  0  0  0  0
    7.5981    6.4190    0.0000 H   0  0  0  0  0  0  0  0  0  0  0  0
    6.6350    6.9751    0.0000 H   0  0  0  0  0  0  0  0  0  0  0  0
    5.7881    7.2020    0.0000 H   0  0  0  0  0  0  0  0  0  0  0  0
    5.5611    6.3551    0.0000 H   0  0  0  0  0  0  0  0  0  0  0  0
    4.2690   -3.8551    0.0000 H   0  0  0  0  0  0  0  0  0  0  0  0
    1.4631   -3.8551    0.0000 H   0  0  0  0  0  0  0  0  0  0  0  0
    4.2690   -5.4751    0.0000 H   0  0  0  0  0  0  0  0  0  0  0  0
    1.4631   -5.4751    0.0000 H   0  0  0  0  0  0  0  0  0  0  0  0
  1 28  1  0  0  0  0
  2  6  1  0  0  0  0
  2 41  1  0  0  0  0
  3 20  2  0  0  0  0
  4  9  1  0  0  0  0
  4 10  1  0  0  0  0
  4 12  1  0  0  0  0
  5 19  1  0  0  0  0
  5 22  1  0  0  0  0
  5 23  1  0  0  0  0
  6  7  1  0  0  0  0
  6  8  1  0  0  0  0
  6 11  1  0  0  0  0
  7  9  1  0  0  0  0
  7 29  1  0  0  0  0
  7 30  1  0  0  0  0
  8 10  1  0  0  0  0
  8 31  1  0  0  0  0
  8 32  1  0  0  0  0
  9 33  1  0  0  0  0
  9 34  1  0  0  0  0
 10 35  1  0  0  0  0
 10 36  1  0  0  0  0
 11 14  2  0  0  0  0
 11 15  1  0  0  0  0
 12 13  1  0  0  0  0
 12 37  1  0  0  0  0
 12 38  1  0  0  0  0
 13 16  1  0  0  0  0
 13 39  1  0  0  0  0
 13 40  1  0  0  0  0
 14 17  1  0  0  0  0
 14 42  1  0  0  0  0
 15 18  2  0  0  0  0
 15 43  1  0  0  0  0
 16 20  1  0  0  0  0
 16 44  1  0  0  0  0
 16 45  1  0  0  0  0
 17 19  2  0  0  0  0
 17 46  1  0  0  0  0
 18 19  1  0  0  0  0
 18 47  1  0  0  0  0
 20 21  1  0  0  0  0
 21 24  2  0  0  0  0
 21 25  1  0  0  0  0
 22 48  1  0  0  0  0
 22 49  1  0  0  0  0
 22 50  1  0  0  0  0
 23 51  1  0  0  0  0
 23 52  1  0  0  0  0
 23 53  1  0  0  0  0
 24 26  1  0  0  0  0
 24 54  1  0  0  0  0
 25 27  2  0  0  0  0
 25 55  1  0  0  0  0
 26 28  2  0  0  0  0
 26 56  1  0  0  0  0
 27 28  1  0  0  0  0
 27 57  1  0  0  0  0
M  END
> <PUBCHEM_COMPOUND_CID>
155560484

> <PUBCHEM_COMPOUND_CANONICALIZED>
1

> <PUBCHEM_CACTVS_COMPLEXITY>
489

> <PUBCHEM_CACTVS_HBOND_ACCEPTOR>
5

> <PUBCHEM_CACTVS_HBOND_DONOR>
1

> <PUBCHEM_CACTVS_ROTATABLE_BOND>
7

> <PUBCHEM_CACTVS_SUBSKEYS>
AAADceB7MQAAAAAAAAAAAAAAAAAAAAAAAAA8YIAAAAAAAAABQAAAHwAACAAADEzBmAwywIMAAgCIAqRSQACCAAAlAgAIiAEIbMgIJjLAlZGEcQhmwAHI2Yec2OOOiAAAAAAAAAAQAAAAAAAAAAAAAAAAAA==

> <PUBCHEM_IUPAC_OPENEYE_NAME>
4-[4-[4-(dimethylamino)phenyl]-4-hydroxy-1-piperidyl]-1-(4-fluorophenyl)butan-1-one

> <PUBCHEM_IUPAC_CAS_NAME>
4-[4-[4-(dimethylamino)phenyl]-4-hydroxy-1-piperidinyl]-1-(4-fluorophenyl)-1-butanone

> <PUBCHEM_IUPAC_NAME_MARKUP>
4-[4-[4-(dimethylamino)phenyl]-4-hydroxypiperidin-1-yl]-1-(4-fluorophenyl)butan-1-one

> <PUBCHEM_IUPAC_NAME>
4-[4-[4-(dimethylamino)phenyl]-4-hydroxypiperidin-1-yl]-1-(4-fluorophenyl)butan-1-one

> <PUBCHEM_IUPAC_SYSTEMATIC_NAME>
4-[4-[4-(dimethylamino)phenyl]-4-oxidanyl-piperidin-1-yl]-1-(4-fluorophenyl)butan-1-one

> <PUBCHEM_IUPAC_TRADITIONAL_NAME>
4-[4-[4-(dimethylamino)phenyl]-4-hydroxy-piperidino]-1-(4-fluorophenyl)butan-1-one

> <PUBCHEM_IUPAC_INCHI>
InChI=1S/C23H29FN2O2/c1-25(2)21-11-7-19(8-12-21)23(28)13-16-26(17-14-23)15-3-4-22(27)18-5-9-20(24)10-6-18/h5-12,28H,3-4,13-17H2,1-2H3

> <PUBCHEM_IUPAC_INCHIKEY>
QSJWHLQITDTDHF-UHFFFAOYSA-N

> <PUBCHEM_XLOGP3>
2.7

> <PUBCHEM_EXACT_MASS>
384.22130633

> <PUBCHEM_MOLECULAR_FORMULA>
C23H29FN2O2

> <PUBCHEM_MOLECULAR_WEIGHT>
384.5

> <PUBCHEM_OPENEYE_CAN_SMILES>
CN(C)C1=CC=C(C=C1)C2(CCN(CC2)CCCC(=O)C3=CC=C(C=C3)F)O

> <PUBCHEM_OPENEYE_ISO_SMILES>
CN(C)C1=CC=C(C=C1)C2(CCN(CC2)CCCC(=O)C3=CC=C(C=C3)F)O

> <PUBCHEM_CACTVS_TPSA>
43.8

> <PUBCHEM_MONOISOTOPIC_WEIGHT>
384.22130633

> <PUBCHEM_TOTAL_CHARGE>
0

> <PUBCHEM_HEAVY_ATOM_COUNT>
28

> <PUBCHEM_ATOM_DEF_STEREO_COUNT>
0

> <PUBCHEM_ATOM_UDEF_STEREO_COUNT>
0

> <PUBCHEM_BOND_DEF_STEREO_COUNT>
0

> <PUBCHEM_BOND_UDEF_STEREO_COUNT>
0

> <PUBCHEM_ISOTOPIC_ATOM_COUNT>
0

> <PUBCHEM_COMPONENT_COUNT>
1

> <PUBCHEM_CACTVS_TAUTO_COUNT>
-1

> <PUBCHEM_COORDINATE_TYPE>
1
5
255

> <PUBCHEM_BONDANNOTATIONS>
11  14  8
11  15  8
14  17  8
15  18  8
17  19  8
18  19  8
21  24  8
21  25  8
24  26  8
25  27  8
26  28  8
27  28  8

$$$$
