25130153
  -OEChem-09292322232D

 53 57  0     1  0  0  0  0  0999 V2000
    8.8914    4.9959    0.0000 Cl  0  0  0  0  0  0  0  0  0  0  0  0
    7.5409    1.6528    0.0000 O   0  0  0  0  0  0  0  0  0  0  0  0
    2.8660   -2.6019    0.0000 O   0  0  0  0  0  0  0  0  0  0  0  0
    7.6995   -1.6404    0.0000 N   0  0  0  0  0  0  0  0  0  0  0  0
    6.4103   -4.4066    0.0000 N   0  0  0  0  0  0  0  0  0  0  0  0
    9.4689   -0.6947    0.0000 C   0  0  2  0  0  0  0  0  0  0  0  0
    8.9228   -1.5324    0.0000 C   0  0  1  0  0  0  0  0  0  0  0  0
    8.3279    1.0358    0.0000 C   0  0  0  0  0  0  0  0  0  0  0  0
    9.2977    0.7922    0.0000 C   0  0  0  0  0  0  0  0  0  0  0  0
    7.7965    0.1887    0.0000 C   0  0  0  0  0  0  0  0  0  0  0  0
   10.7819   -1.3961    0.0000 C   0  0  0  0  0  0  0  0  0  0  0  0
   10.2358   -2.2339    0.0000 C   0  0  0  0  0  0  0  0  0  0  0  0
    6.7210   -1.8466    0.0000 C   0  0  0  0  0  0  0  0  0  0  0  0
    8.4688    2.0258    0.0000 C   0  0  0  0  0  0  0  0  0  0  0  0
    6.4103   -2.7971    0.0000 C   0  0  0  0  0  0  0  0  0  0  0  0
    9.3966    2.3989    0.0000 C   0  0  0  0  0  0  0  0  0  0  0  0
    7.6818    2.6429    0.0000 C   0  0  0  0  0  0  0  0  0  0  0  0
    5.4641   -3.1019    0.0000 C   0  0  0  0  0  0  0  0  0  0  0  0
    6.9939   -3.6019    0.0000 C   0  0  0  0  0  0  0  0  0  0  0  0
    5.4641   -4.1019    0.0000 C   0  0  0  0  0  0  0  0  0  0  0  0
    9.5375    3.3889    0.0000 C   0  0  0  0  0  0  0  0  0  0  0  0
    7.8227    3.6329    0.0000 C   0  0  0  0  0  0  0  0  0  0  0  0
    8.7505    4.0059    0.0000 C   0  0  0  0  0  0  0  0  0  0  0  0
    4.5981   -2.6019    0.0000 C   0  0  0  0  0  0  0  0  0  0  0  0
    4.5981   -4.6019    0.0000 C   0  0  0  0  0  0  0  0  0  0  0  0
    3.7320   -3.1019    0.0000 C   0  0  0  0  0  0  0  0  0  0  0  0
    3.7320   -4.1019    0.0000 C   0  0  0  0  0  0  0  0  0  0  0  0
    2.0000   -3.1019    0.0000 C   0  0  0  0  0  0  0  0  0  0  0  0
    9.9331    0.0174    0.0000 H   0  0  0  0  0  0  0  0  0  0  0  0
    8.4586   -2.2445    0.0000 H   0  0  0  0  0  0  0  0  0  0  0  0
    9.9177    0.7887    0.0000 H   0  0  0  0  0  0  0  0  0  0  0  0
    9.3756    1.4073    0.0000 H   0  0  0  0  0  0  0  0  0  0  0  0
    7.3239    0.5900    0.0000 H   0  0  0  0  0  0  0  0  0  0  0  0
    7.3317   -0.2216    0.0000 H   0  0  0  0  0  0  0  0  0  0  0  0
   11.3109   -1.7195    0.0000 H   0  0  0  0  0  0  0  0  0  0  0  0
   11.0898   -0.8580    0.0000 H   0  0  0  0  0  0  0  0  0  0  0  0
    9.9279   -2.7720    0.0000 H   0  0  0  0  0  0  0  0  0  0  0  0
   10.7648   -2.5572    0.0000 H   0  0  0  0  0  0  0  0  0  0  0  0
    6.7004   -1.2270    0.0000 H   0  0  0  0  0  0  0  0  0  0  0  0
    6.1072   -1.7593    0.0000 H   0  0  0  0  0  0  0  0  0  0  0  0
    6.9657    1.4216    0.0000 H   0  0  0  0  0  0  0  0  0  0  0  0
    9.8845    2.0163    0.0000 H   0  0  0  0  0  0  0  0  0  0  0  0
    7.1066    2.4116    0.0000 H   0  0  0  0  0  0  0  0  0  0  0  0
    7.6139   -3.6019    0.0000 H   0  0  0  0  0  0  0  0  0  0  0  0
   10.1127    3.6201    0.0000 H   0  0  0  0  0  0  0  0  0  0  0  0
    7.3348    4.0155    0.0000 H   0  0  0  0  0  0  0  0  0  0  0  0
    6.6029   -4.9959    0.0000 H   0  0  0  0  0  0  0  0  0  0  0  0
    4.5981   -1.9819    0.0000 H   0  0  0  0  0  0  0  0  0  0  0  0
    4.5981   -5.2219    0.0000 H   0  0  0  0  0  0  0  0  0  0  0  0
    3.1951   -4.4119    0.0000 H   0  0  0  0  0  0  0  0  0  0  0  0
    1.6900   -2.5649    0.0000 H   0  0  0  0  0  0  0  0  0  0  0  0
    1.4631   -3.4119    0.0000 H   0  0  0  0  0  0  0  0  0  0  0  0
    2.3100   -3.6388    0.0000 H   0  0  0  0  0  0  0  0  0  0  0  0
  1 23  1  0  0  0  0
  2  8  1  0  0  0  0
  2 41  1  0  0  0  0
  3 26  1  0  0  0  0
  3 28  1  0  0  0  0
  4  6  1  0  0  0  0
  4  7  1  0  0  0  0
  4 13  1  0  0  0  0
  5 19  1  0  0  0  0
  5 20  1  0  0  0  0
  5 47  1  0  0  0  0
  6  9  1  0  0  0  0
  6 11  1  0  0  0  0
  6 29  1  1  0  0  0
  7 10  1  0  0  0  0
  7 12  1  0  0  0  0
  7 30  1  6  0  0  0
  8  9  1  0  0  0  0
  8 10  1  0  0  0  0
  8 14  1  0  0  0  0
  9 31  1  0  0  0  0
  9 32  1  0  0  0  0
 10 33  1  0  0  0  0
 10 34  1  0  0  0  0
 11 12  1  0  0  0  0
 11 35  1  0  0  0  0
 11 36  1  0  0  0  0
 12 37  1  0  0  0  0
 12 38  1  0  0  0  0
 13 15  1  0  0  0  0
 13 39  1  0  0  0  0
 13 40  1  0  0  0  0
 14 16  2  0  0  0  0
 14 17  1  0  0  0  0
 15 18  1  0  0  0  0
 15 19  2  0  0  0  0
 16 21  1  0  0  0  0
 16 42  1  0  0  0  0
 17 22  2  0  0  0  0
 17 43  1  0  0  0  0
 18 20  2  0  0  0  0
 18 24  1  0  0  0  0
 19 44  1  0  0  0  0
 20 25  1  0  0  0  0
 21 23  2  0  0  0  0
 21 45  1  0  0  0  0
 22 23  1  0  0  0  0
 22 46  1  0  0  0  0
 24 26  2  0  0  0  0
 24 48  1  0  0  0  0
 25 27  2  0  0  0  0
 25 49  1  0  0  0  0
 26 27  1  0  0  0  0
 27 50  1  0  0  0  0
 28 51  1  0  0  0  0
 28 52  1  0  0  0  0
 28 53  1  0  0  0  0
M  END
> <PUBCHEM_COMPOUND_CID>
25130153

> <PUBCHEM_COMPOUND_CANONICALIZED>
1

> <PUBCHEM_CACTVS_COMPLEXITY>
539

> <PUBCHEM_CACTVS_HBOND_ACCEPTOR>
3

> <PUBCHEM_CACTVS_HBOND_DONOR>
2

> <PUBCHEM_CACTVS_ROTATABLE_BOND>
4

> <PUBCHEM_CACTVS_SUBSKEYS>
AAADceB7MAAEAAAAAAAAAAAAAAAAAWLAAAA8YIAABgAAAFgB9AAAHgIQCAAADG7BniY+xvPJlgCgAzRnRACCiCAxJyAI2aA+bpgMJuLF85uEcChm0BHI+Aew0PIOhEABAAACAAAIgAIAAAQAAAAAAAAAAA==

> <PUBCHEM_IUPAC_OPENEYE_NAME>
(1S,5R)-3-(4-chlorophenyl)-8-[(5-methoxy-1H-indol-3-yl)methyl]-8-azabicyclo[3.2.1]octan-3-ol

> <PUBCHEM_IUPAC_CAS_NAME>
(1S,5R)-3-(4-chlorophenyl)-8-[(5-methoxy-1H-indol-3-yl)methyl]-8-azabicyclo[3.2.1]octan-3-ol

> <PUBCHEM_IUPAC_NAME_MARKUP>
(1<I>S</I>,5<I>R</I>)-3-(4-chlorophenyl)-8-[(5-methoxy-1<I>H</I>-indol-3-yl)methyl]-8-azabicyclo[3.2.1]octan-3-ol

> <PUBCHEM_IUPAC_NAME>
(1S,5R)-3-(4-chlorophenyl)-8-[(5-methoxy-1H-indol-3-yl)methyl]-8-azabicyclo[3.2.1]octan-3-ol

> <PUBCHEM_IUPAC_SYSTEMATIC_NAME>
(1S,5R)-3-(4-chlorophenyl)-8-[(5-methoxy-1H-indol-3-yl)methyl]-8-azabicyclo[3.2.1]octan-3-ol

> <PUBCHEM_IUPAC_TRADITIONAL_NAME>
(1S,5R)-3-(4-chlorophenyl)-8-[(5-methoxy-1H-indol-3-yl)methyl]-8-azabicyclo[3.2.1]octan-3-ol

> <PUBCHEM_IUPAC_INCHI>
InChI=1S/C23H25ClN2O2/c1-28-20-8-9-22-21(10-20)15(13-25-22)14-26-18-6-7-19(26)12-23(27,11-18)16-2-4-17(24)5-3-16/h2-5,8-10,13,18-19,25,27H,6-7,11-12,14H2,1H3/t18-,19+,23?

> <PUBCHEM_IUPAC_INCHIKEY>
HFZAKKDYDONOQJ-LIMIJEPZSA-N

> <PUBCHEM_XLOGP3_AA>
4.3

> <PUBCHEM_EXACT_MASS>
396.1604557

> <PUBCHEM_MOLECULAR_FORMULA>
C23H25ClN2O2

> <PUBCHEM_MOLECULAR_WEIGHT>
396.9

> <PUBCHEM_OPENEYE_CAN_SMILES>
COC1=CC2=C(C=C1)NC=C2CN3C4CCC3CC(C4)(C5=CC=C(C=C5)Cl)O

> <PUBCHEM_OPENEYE_ISO_SMILES>
COC1=CC2=C(C=C1)NC=C2CN3[C@@H]4CC[C@H]3CC(C4)(C5=CC=C(C=C5)Cl)O

> <PUBCHEM_CACTVS_TPSA>
48.5

> <PUBCHEM_MONOISOTOPIC_WEIGHT>
396.1604557

> <PUBCHEM_TOTAL_CHARGE>
0

> <PUBCHEM_HEAVY_ATOM_COUNT>
28

> <PUBCHEM_ATOM_DEF_STEREO_COUNT>
2

> <PUBCHEM_ATOM_UDEF_STEREO_COUNT>
0

> <PUBCHEM_BOND_DEF_STEREO_COUNT>
0

> <PUBCHEM_BOND_UDEF_STEREO_COUNT>
0

> <PUBCHEM_ISOTOPIC_ATOM_COUNT>
0

> <PUBCHEM_COMPONENT_COUNT>
1

> <PUBCHEM_CACTVS_TAUTO_COUNT>
-1

> <PUBCHEM_COORDINATE_TYPE>
1
5
255

> <PUBCHEM_BONDANNOTATIONS>
14  16  8
14  17  8
15  18  8
15  19  8
16  21  8
17  22  8
18  20  8
18  24  8
20  25  8
21  23  8
22  23  8
24  26  8
25  27  8
26  27  8
5  19  8
5  20  8
6  29  5
7  30  6

$$$$
