11699340
  -OEChem-09292322262D

 72 77  0     1  0  0  0  0  0999 V2000
    6.0311    2.0291    0.0000 S   0  0  0  0  0  0  0  0  0  0  0  0
    3.8136   -6.8853    0.0000 O   0  0  0  0  0  0  0  0  0  0  0  0
    5.5311   -2.3010    0.0000 N   0  0  3  0  0  0  0  0  0  0  0  0
    2.4197   -6.0806    0.0000 N   0  0  0  0  0  0  0  0  0  0  0  0
    5.9378    3.8087    0.0000 N   0  0  0  0  0  0  0  0  0  0  0  0
    4.5366    2.9997    0.0000 N   0  0  0  0  0  0  0  0  0  0  0  0
    4.3286    3.9778    0.0000 N   0  0  0  0  0  0  0  0  0  0  0  0
    3.7616    7.6798    0.0000 N   0  0  0  0  0  0  0  0  0  0  0  0
    6.0847   -3.1106    0.0000 C   0  0  0  0  0  0  0  0  0  0  0  0
    4.5531   -2.2264    0.0000 C   0  0  0  0  0  0  0  0  0  0  0  0
    5.7994   -4.0490    0.0000 C   0  0  0  0  0  0  0  0  0  0  0  0
    4.8888   -4.4135    0.0000 C   0  0  0  0  0  0  0  0  0  0  0  0
    3.8831   -2.9427    0.0000 C   0  0  0  0  0  0  0  0  0  0  0  0
    4.0228   -3.9135    0.0000 C   0  0  0  0  0  0  0  0  0  0  0  0
    6.0311   -1.4350    0.0000 C   0  0  0  0  0  0  0  0  0  0  0  0
    4.8888   -5.4135    0.0000 C   0  0  0  0  0  0  0  0  0  0  0  0
    5.5311   -0.5690    0.0000 C   0  0  0  0  0  0  0  0  0  0  0  0
    3.1568   -4.4135    0.0000 C   0  0  0  0  0  0  0  0  0  0  0  0
    4.0228   -5.9135    0.0000 C   0  0  0  0  0  0  0  0  0  0  0  0
    3.1568   -5.4135    0.0000 C   0  0  0  0  0  0  0  0  0  0  0  0
    6.0311    0.2970    0.0000 C   0  0  0  0  0  0  0  0  0  0  0  0
    5.7548   -5.9135    0.0000 C   0  0  0  0  0  0  0  0  0  0  0  0
    5.5311    1.1631    0.0000 C   0  0  0  0  0  0  0  0  0  0  0  0
    2.8248   -6.9884    0.0000 C   0  0  0  0  0  0  0  0  0  0  0  0
    2.3248   -7.8544    0.0000 C   0  0  0  0  0  0  0  0  0  0  0  0
    5.5311    2.8951    0.0000 C   0  0  0  0  0  0  0  0  0  0  0  0
    5.1947    4.4778    0.0000 C   0  0  0  0  0  0  0  0  0  0  0  0
    5.2992    5.4723    0.0000 C   0  0  0  0  0  0  0  0  0  0  0  0
    4.4902    6.0601    0.0000 C   0  0  0  0  0  0  0  0  0  0  0  0
    6.9160    4.0166    0.0000 C   0  0  0  0  0  0  0  0  0  0  0  0
    4.5947    7.0546    0.0000 C   0  0  0  0  0  0  0  0  0  0  0  0
    6.2128    5.8791    0.0000 C   0  0  0  0  0  0  0  0  0  0  0  0
    3.5453    5.6218    0.0000 C   0  0  0  0  0  0  0  0  0  0  0  0
    5.5083    7.4614    0.0000 C   0  0  0  0  0  0  0  0  0  0  0  0
    6.3173    6.8736    0.0000 C   0  0  0  0  0  0  0  0  0  0  0  0
    2.6979    6.2276    0.0000 C   0  0  0  0  0  0  0  0  0  0  0  0
    2.8068    7.2635    0.0000 C   0  0  0  0  0  0  0  0  0  0  0  0
    2.0000    7.8544    0.0000 C   0  0  0  0  0  0  0  0  0  0  0  0
    6.6226   -3.4190    0.0000 H   0  0  0  0  0  0  0  0  0  0  0  0
    6.5054   -2.6552    0.0000 H   0  0  0  0  0  0  0  0  0  0  0  0
    4.7372   -1.6344    0.0000 H   0  0  0  0  0  0  0  0  0  0  0  0
    4.0172   -1.9147    0.0000 H   0  0  0  0  0  0  0  0  0  0  0  0
    5.8954   -4.6616    0.0000 H   0  0  0  0  0  0  0  0  0  0  0  0
    6.4179   -4.0923    0.0000 H   0  0  0  0  0  0  0  0  0  0  0  0
    3.5364   -2.4287    0.0000 H   0  0  0  0  0  0  0  0  0  0  0  0
    3.3047   -3.1658    0.0000 H   0  0  0  0  0  0  0  0  0  0  0  0
    6.5060   -1.8335    0.0000 H   0  0  0  0  0  0  0  0  0  0  0  0
    6.5060   -1.0365    0.0000 H   0  0  0  0  0  0  0  0  0  0  0  0
    5.0561   -0.1704    0.0000 H   0  0  0  0  0  0  0  0  0  0  0  0
    5.0561   -0.9675    0.0000 H   0  0  0  0  0  0  0  0  0  0  0  0
    2.6198   -4.1035    0.0000 H   0  0  0  0  0  0  0  0  0  0  0  0
    6.5060   -0.1015    0.0000 H   0  0  0  0  0  0  0  0  0  0  0  0
    6.5060    0.6956    0.0000 H   0  0  0  0  0  0  0  0  0  0  0  0
    5.4448   -6.4504    0.0000 H   0  0  0  0  0  0  0  0  0  0  0  0
    6.2918   -6.2235    0.0000 H   0  0  0  0  0  0  0  0  0  0  0  0
    6.0648   -5.3766    0.0000 H   0  0  0  0  0  0  0  0  0  0  0  0
    5.0561    1.5616    0.0000 H   0  0  0  0  0  0  0  0  0  0  0  0
    5.0561    0.7645    0.0000 H   0  0  0  0  0  0  0  0  0  0  0  0
    1.7879   -7.5444    0.0000 H   0  0  0  0  0  0  0  0  0  0  0  0
    2.0148   -8.3913    0.0000 H   0  0  0  0  0  0  0  0  0  0  0  0
    2.8618   -8.1644    0.0000 H   0  0  0  0  0  0  0  0  0  0  0  0
    7.0449    3.4101    0.0000 H   0  0  0  0  0  0  0  0  0  0  0  0
    7.5224    4.1455    0.0000 H   0  0  0  0  0  0  0  0  0  0  0  0
    6.7871    4.6230    0.0000 H   0  0  0  0  0  0  0  0  0  0  0  0
    6.7143    5.5146    0.0000 H   0  0  0  0  0  0  0  0  0  0  0  0
    3.4876    5.0045    0.0000 H   0  0  0  0  0  0  0  0  0  0  0  0
    5.5731    8.0780    0.0000 H   0  0  0  0  0  0  0  0  0  0  0  0
    6.8837    7.1258    0.0000 H   0  0  0  0  0  0  0  0  0  0  0  0
    2.1324    5.9732    0.0000 H   0  0  0  0  0  0  0  0  0  0  0  0
    2.3664    8.3546    0.0000 H   0  0  0  0  0  0  0  0  0  0  0  0
    1.4998    8.2207    0.0000 H   0  0  0  0  0  0  0  0  0  0  0  0
    1.6336    7.3542    0.0000 H   0  0  0  0  0  0  0  0  0  0  0  0
  1 23  1  0  0  0  0
  1 26  1  0  0  0  0
  2 19  1  0  0  0  0
  2 24  1  0  0  0  0
  3  9  1  0  0  0  0
  3 10  1  0  0  0  0
  3 15  1  0  0  0  0
  4 20  1  0  0  0  0
  4 24  2  0  0  0  0
  5 26  1  0  0  0  0
  5 27  1  0  0  0  0
  5 30  1  0  0  0  0
  6  7  1  0  0  0  0
  6 26  2  0  0  0  0
  7 27  2  0  0  0  0
  8 31  1  0  0  0  0
  8 37  2  0  0  0  0
  9 11  1  0  0  0  0
  9 39  1  0  0  0  0
  9 40  1  0  0  0  0
 10 13  1  0  0  0  0
 10 41  1  0  0  0  0
 10 42  1  0  0  0  0
 11 12  1  0  0  0  0
 11 43  1  0  0  0  0
 11 44  1  0  0  0  0
 12 14  1  0  0  0  0
 12 16  2  0  0  0  0
 13 14  1  0  0  0  0
 13 45  1  0  0  0  0
 13 46  1  0  0  0  0
 14 18  2  0  0  0  0
 15 17  1  0  0  0  0
 15 47  1  0  0  0  0
 15 48  1  0  0  0  0
 16 19  1  0  0  0  0
 16 22  1  0  0  0  0
 17 21  1  0  0  0  0
 17 49  1  0  0  0  0
 17 50  1  0  0  0  0
 18 20  1  0  0  0  0
 18 51  1  0  0  0  0
 19 20  2  0  0  0  0
 21 23  1  0  0  0  0
 21 52  1  0  0  0  0
 21 53  1  0  0  0  0
 22 54  1  0  0  0  0
 22 55  1  0  0  0  0
 22 56  1  0  0  0  0
 23 57  1  0  0  0  0
 23 58  1  0  0  0  0
 24 25  1  0  0  0  0
 25 59  1  0  0  0  0
 25 60  1  0  0  0  0
 25 61  1  0  0  0  0
 27 28  1  0  0  0  0
 28 29  2  0  0  0  0
 28 32  1  0  0  0  0
 29 31  1  0  0  0  0
 29 33  1  0  0  0  0
 30 62  1  0  0  0  0
 30 63  1  0  0  0  0
 30 64  1  0  0  0  0
 31 34  2  0  0  0  0
 32 35  2  0  0  0  0
 32 65  1  0  0  0  0
 33 36  2  0  0  0  0
 33 66  1  0  0  0  0
 34 35  1  0  0  0  0
 34 67  1  0  0  0  0
 35 68  1  0  0  0  0
 36 37  1  0  0  0  0
 36 69  1  0  0  0  0
 37 38  1  0  0  0  0
 38 70  1  0  0  0  0
 38 71  1  0  0  0  0
 38 72  1  0  0  0  0
M  END
> <PUBCHEM_COMPOUND_CID>
11699340

> <PUBCHEM_COMPOUND_CANONICALIZED>
1

> <PUBCHEM_CACTVS_COMPLEXITY>
775

> <PUBCHEM_CACTVS_HBOND_ACCEPTOR>
7

> <PUBCHEM_CACTVS_HBOND_DONOR>
0

> <PUBCHEM_CACTVS_ROTATABLE_BOND>
7

> <PUBCHEM_CACTVS_SUBSKEYS>
AAADcfB7oABAAAAAAAAAAAAAAAAAAWLAAAA8YIAABYAAAFix/gAAHgQIAAAADAzF3wSz1vcMFEiqA6dydASS2CtvYrAd2CG9bNiOLvLkvbuPOSjkzBPY6YeY2fKOqAADQAAaEABQAAaAADQgAAAAAAAAAA==

> <PUBCHEM_IUPAC_OPENEYE_NAME>
2,10-dimethyl-7-[4-[[4-methyl-5-(2-methyl-5-quinolyl)-1,2,4-triazol-3-yl]sulfanyl]butyl]-5,6,8,9-tetrahydrooxazolo[4,5-h][3]benzazepine

> <PUBCHEM_IUPAC_CAS_NAME>
2,10-dimethyl-7-[4-[[4-methyl-5-(2-methyl-5-quinolinyl)-1,2,4-triazol-3-yl]thio]butyl]-5,6,8,9-tetrahydrooxazolo[4,5-h][3]benzazepine

> <PUBCHEM_IUPAC_NAME_MARKUP>
2,10-dimethyl-7-[4-[[4-methyl-5-(2-methylquinolin-5-yl)-1,2,4-triazol-3-yl]sulfanyl]butyl]-5,6,8,9-tetrahydro-[1,3]oxazolo[4,5-h][3]benzazepine

> <PUBCHEM_IUPAC_NAME>
2,10-dimethyl-7-[4-[[4-methyl-5-(2-methylquinolin-5-yl)-1,2,4-triazol-3-yl]sulfanyl]butyl]-5,6,8,9-tetrahydro-[1,3]oxazolo[4,5-h][3]benzazepine

> <PUBCHEM_IUPAC_SYSTEMATIC_NAME>
2,10-dimethyl-7-[4-[[4-methyl-5-(2-methylquinolin-5-yl)-1,2,4-triazol-3-yl]sulfanyl]butyl]-5,6,8,9-tetrahydro-[1,3]oxazolo[4,5-h][3]benzazepine

> <PUBCHEM_IUPAC_TRADITIONAL_NAME>
2,10-dimethyl-7-[4-[[4-methyl-5-(2-methyl-5-quinolyl)-1,2,4-triazol-3-yl]thio]butyl]-5,6,8,9-tetrahydrooxazolo[4,5-h][3]benzazepine

> <PUBCHEM_IUPAC_INCHI>
InChI=1S/C30H34N6OS/c1-19-10-11-24-25(8-7-9-26(24)31-19)29-33-34-30(35(29)4)38-17-6-5-14-36-15-12-22-18-27-28(37-21(3)32-27)20(2)23(22)13-16-36/h7-11,18H,5-6,12-17H2,1-4H3

> <PUBCHEM_IUPAC_INCHIKEY>
BFIAPIAYPVHYPQ-UHFFFAOYSA-N

> <PUBCHEM_XLOGP3_AA>
5.9

> <PUBCHEM_EXACT_MASS>
526.25148090

> <PUBCHEM_MOLECULAR_FORMULA>
C30H34N6OS

> <PUBCHEM_MOLECULAR_WEIGHT>
526.7

> <PUBCHEM_OPENEYE_CAN_SMILES>
CC1=NC2=CC=CC(=C2C=C1)C3=NN=C(N3C)SCCCCN4CCC5=CC6=C(C(=C5CC4)C)OC(=N6)C

> <PUBCHEM_OPENEYE_ISO_SMILES>
CC1=NC2=CC=CC(=C2C=C1)C3=NN=C(N3C)SCCCCN4CCC5=CC6=C(C(=C5CC4)C)OC(=N6)C

> <PUBCHEM_CACTVS_TPSA>
98.2

> <PUBCHEM_MONOISOTOPIC_WEIGHT>
526.25148090

> <PUBCHEM_TOTAL_CHARGE>
0

> <PUBCHEM_HEAVY_ATOM_COUNT>
38

> <PUBCHEM_ATOM_DEF_STEREO_COUNT>
0

> <PUBCHEM_ATOM_UDEF_STEREO_COUNT>
0

> <PUBCHEM_BOND_DEF_STEREO_COUNT>
0

> <PUBCHEM_BOND_UDEF_STEREO_COUNT>
0

> <PUBCHEM_ISOTOPIC_ATOM_COUNT>
0

> <PUBCHEM_COMPONENT_COUNT>
1

> <PUBCHEM_CACTVS_TAUTO_COUNT>
-1

> <PUBCHEM_COORDINATE_TYPE>
1
5
255

> <PUBCHEM_BONDANNOTATIONS>
12  14  8
12  16  8
14  18  8
16  19  8
18  20  8
19  20  8
2  19  8
2  24  8
28  29  8
28  32  8
29  31  8
29  33  8
31  34  8
32  35  8
33  36  8
34  35  8
36  37  8
4  20  8
4  24  8
5  26  8
5  27  8
6  26  8
6  7  8
7  27  8
8  31  8
8  37  8

$$$$
