145959706
  -OEChem-09292322382D

 61 63  0     1  0  0  0  0  0999 V2000
   10.5478    5.9712    0.0000 Cl  0  0  0  0  0  0  0  0  0  0  0  0
    4.3301    6.6200    0.0000 O   0  0  0  0  0  0  0  0  0  0  0  0
    3.6915   10.2837    0.0000 O   0  0  0  0  0  0  0  0  0  0  0  0
    5.4516    7.2351    0.0000 O   0  0  0  0  0  0  0  0  0  0  0  0
    2.5981    5.6200    0.0000 N   0  0  0  0  0  0  0  0  0  0  0  0
    2.5981    3.6200    0.0000 N   0  0  0  0  0  0  0  0  0  0  0  0
    4.3301    8.6200    0.0000 N   0  0  0  0  0  0  0  0  0  0  0  0
    5.9128    8.9564    0.0000 N   0  0  0  0  0  0  0  0  0  0  0  0
    0.0000    3.1200    0.0000 N   0  0  0  0  0  0  0  0  0  0  0  0
    2.5981    6.6200    0.0000 C   0  0  0  0  0  0  0  0  0  0  0  0
    3.4641    5.1200    0.0000 C   0  0  0  0  0  0  0  0  0  0  0  0
    1.7320    5.1200    0.0000 C   0  0  0  0  0  0  0  0  0  0  0  0
    3.4641    7.1200    0.0000 C   0  0  3  0  0  0  0  0  0  0  0  0
    3.4641    4.1200    0.0000 C   0  0  0  0  0  0  0  0  0  0  0  0
    1.7320    4.1200    0.0000 C   0  0  0  0  0  0  0  0  0  0  0  0
    5.4128    9.8224    0.0000 C   0  0  3  0  0  0  0  0  0  0  0  0
    3.4641    8.1200    0.0000 C   0  0  0  0  0  0  0  0  0  0  0  0
    4.4347    9.6145    0.0000 C   0  0  0  0  0  0  0  0  0  0  0  0
    5.2437    8.2133    0.0000 C   0  0  0  0  0  0  0  0  0  0  0  0
    6.2788   10.3224    0.0000 C   0  0  0  0  0  0  0  0  0  0  0  0
    2.5981    2.6200    0.0000 C   0  0  0  0  0  0  0  0  0  0  0  0
    5.2049   10.8006    0.0000 C   0  0  0  0  0  0  0  0  0  0  0  0
    6.2788   11.3224    0.0000 C   0  0  0  0  0  0  0  0  0  0  0  0
    7.1448    9.8224    0.0000 C   0  0  0  0  0  0  0  0  0  0  0  0
    1.7320    2.1200    0.0000 C   0  0  0  0  0  0  0  0  0  0  0  0
    3.4641    2.1200    0.0000 C   0  0  0  0  0  0  0  0  0  0  0  0
    7.1448   11.8224    0.0000 C   0  0  0  0  0  0  0  0  0  0  0  0
    8.0109   10.3224    0.0000 C   0  0  0  0  0  0  0  0  0  0  0  0
    1.7320    1.1200    0.0000 C   0  0  0  0  0  0  0  0  0  0  0  0
    3.4641    1.1200    0.0000 C   0  0  0  0  0  0  0  0  0  0  0  0
    8.0109   11.3224    0.0000 C   0  0  0  0  0  0  0  0  0  0  0  0
    2.5981    0.6200    0.0000 C   0  0  0  0  0  0  0  0  0  0  0  0
    0.8660    2.6200    0.0000 C   0  0  0  0  0  0  0  0  0  0  0  0
    2.3860    7.2026    0.0000 H   0  0  0  0  0  0  0  0  0  0  0  0
    1.9875    6.5123    0.0000 H   0  0  0  0  0  0  0  0  0  0  0  0
    4.0747    5.0123    0.0000 H   0  0  0  0  0  0  0  0  0  0  0  0
    3.6762    5.7026    0.0000 H   0  0  0  0  0  0  0  0  0  0  0  0
    1.5200    5.7026    0.0000 H   0  0  0  0  0  0  0  0  0  0  0  0
    1.1215    5.0123    0.0000 H   0  0  0  0  0  0  0  0  0  0  0  0
    4.0010    7.4300    0.0000 H   0  0  0  0  0  0  0  0  0  0  0  0
    3.6762    3.5374    0.0000 H   0  0  0  0  0  0  0  0  0  0  0  0
    4.0747    4.2277    0.0000 H   0  0  0  0  0  0  0  0  0  0  0  0
    1.1215    4.2277    0.0000 H   0  0  0  0  0  0  0  0  0  0  0  0
    1.5200    3.5374    0.0000 H   0  0  0  0  0  0  0  0  0  0  0  0
    3.2520    8.7026    0.0000 H   0  0  0  0  0  0  0  0  0  0  0  0
    2.8535    8.0123    0.0000 H   0  0  0  0  0  0  0  0  0  0  0  0
    6.5294    8.8916    0.0000 H   0  0  0  0  0  0  0  0  0  0  0  0
    5.8113   10.9295    0.0000 H   0  0  0  0  0  0  0  0  0  0  0  0
    5.0760   11.4070    0.0000 H   0  0  0  0  0  0  0  0  0  0  0  0
    4.5984   10.6717    0.0000 H   0  0  0  0  0  0  0  0  0  0  0  0
    4.8671    6.9300    0.0000 H   0  0  0  0  0  0  0  0  0  0  0  0
    5.7419   11.6324    0.0000 H   0  0  0  0  0  0  0  0  0  0  0  0
    7.1448    9.2024    0.0000 H   0  0  0  0  0  0  0  0  0  0  0  0
    4.0010    2.4300    0.0000 H   0  0  0  0  0  0  0  0  0  0  0  0
    7.1448   12.4424    0.0000 H   0  0  0  0  0  0  0  0  0  0  0  0
    8.5478   10.0124    0.0000 H   0  0  0  0  0  0  0  0  0  0  0  0
    1.1951    0.8100    0.0000 H   0  0  0  0  0  0  0  0  0  0  0  0
    4.0010    0.8100    0.0000 H   0  0  0  0  0  0  0  0  0  0  0  0
    8.5478   11.6324    0.0000 H   0  0  0  0  0  0  0  0  0  0  0  0
    2.5981    0.0000    0.0000 H   0  0  0  0  0  0  0  0  0  0  0  0
   11.5478    5.9712    0.0000 H   0  0  0  0  0  0  0  0  0  0  0  0
  1 61  1  0  0  0  0
  2 13  1  0  0  0  0
  2 51  1  0  0  0  0
  3 18  2  0  0  0  0
  4 19  2  0  0  0  0
  5 10  1  0  0  0  0
  5 11  1  0  0  0  0
  5 12  1  0  0  0  0
  6 14  1  0  0  0  0
  6 15  1  0  0  0  0
  6 21  1  0  0  0  0
  7 17  1  0  0  0  0
  7 18  1  0  0  0  0
  7 19  1  0  0  0  0
  8 16  1  0  0  0  0
  8 19  1  0  0  0  0
  8 47  1  0  0  0  0
  9 33  3  0  0  0  0
 10 13  1  0  0  0  0
 10 34  1  0  0  0  0
 10 35  1  0  0  0  0
 11 14  1  0  0  0  0
 11 36  1  0  0  0  0
 11 37  1  0  0  0  0
 12 15  1  0  0  0  0
 12 38  1  0  0  0  0
 12 39  1  0  0  0  0
 13 17  1  0  0  0  0
 13 40  1  0  0  0  0
 14 41  1  0  0  0  0
 14 42  1  0  0  0  0
 15 43  1  0  0  0  0
 15 44  1  0  0  0  0
 16 18  1  0  0  0  0
 16 20  1  0  0  0  0
 16 22  1  0  0  0  0
 17 45  1  0  0  0  0
 17 46  1  0  0  0  0
 20 23  2  0  0  0  0
 20 24  1  0  0  0  0
 21 25  1  0  0  0  0
 21 26  2  0  0  0  0
 22 48  1  0  0  0  0
 22 49  1  0  0  0  0
 22 50  1  0  0  0  0
 23 27  1  0  0  0  0
 23 52  1  0  0  0  0
 24 28  2  0  0  0  0
 24 53  1  0  0  0  0
 25 29  2  0  0  0  0
 25 33  1  0  0  0  0
 26 30  1  0  0  0  0
 26 54  1  0  0  0  0
 27 31  2  0  0  0  0
 27 55  1  0  0  0  0
 28 31  1  0  0  0  0
 28 56  1  0  0  0  0
 29 32  1  0  0  0  0
 29 57  1  0  0  0  0
 30 32  2  0  0  0  0
 30 58  1  0  0  0  0
 31 59  1  0  0  0  0
 32 60  1  0  0  0  0
M  END
> <PUBCHEM_COMPOUND_CID>
145959706

> <PUBCHEM_COMPOUND_CANONICALIZED>
1

> <PUBCHEM_CACTVS_COMPLEXITY>
737

> <PUBCHEM_CACTVS_HBOND_ACCEPTOR>
6

> <PUBCHEM_CACTVS_HBOND_DONOR>
3

> <PUBCHEM_CACTVS_ROTATABLE_BOND>
6

> <PUBCHEM_CACTVS_SUBSKEYS>
AAADceB7sAAEAAAAAAAAAAAAAAAAAWAAAAA8YIAAAAAAAAABQAAAHgAQCAAADJzhmAYzwIPAAgCYBiVSUACiAAAhAgAIiAGIZIiK8DLA1bGUIAholyLYyA8YiMCOgAAAAAACAAAAAAAAAAQAAAAAAAAAAA==

> <PUBCHEM_IUPAC_OPENEYE_NAME>
2-[4-[2-hydroxy-3-(4-methyl-2,5-dioxo-4-phenyl-imidazolidin-1-yl)propyl]piperazin-1-yl]benzonitrile;hydrochloride

> <PUBCHEM_IUPAC_CAS_NAME>
2-[4-[2-hydroxy-3-(4-methyl-2,5-dioxo-4-phenyl-1-imidazolidinyl)propyl]-1-piperazinyl]benzonitrile;hydrochloride

> <PUBCHEM_IUPAC_NAME_MARKUP>
2-[4-[2-hydroxy-3-(4-methyl-2,5-dioxo-4-phenylimidazolidin-1-yl)propyl]piperazin-1-yl]benzonitrile;hydrochloride

> <PUBCHEM_IUPAC_NAME>
2-[4-[2-hydroxy-3-(4-methyl-2,5-dioxo-4-phenylimidazolidin-1-yl)propyl]piperazin-1-yl]benzonitrile;hydrochloride

> <PUBCHEM_IUPAC_SYSTEMATIC_NAME>
2-[4-[3-[4-methyl-2,5-bis(oxidanylidene)-4-phenyl-imidazolidin-1-yl]-2-oxidanyl-propyl]piperazin-1-yl]benzenecarbonitrile;hydrochloride

> <PUBCHEM_IUPAC_TRADITIONAL_NAME>
2-[4-[3-(2,5-diketo-4-methyl-4-phenyl-imidazolidin-1-yl)-2-hydroxy-propyl]piperazino]benzonitrile;hydrochloride

> <PUBCHEM_IUPAC_INCHI>
InChI=1S/C24H27N5O3.ClH/c1-24(19-8-3-2-4-9-19)22(31)29(23(32)26-24)17-20(30)16-27-11-13-28(14-12-27)21-10-6-5-7-18(21)15-25;/h2-10,20,30H,11-14,16-17H2,1H3,(H,26,32);1H

> <PUBCHEM_IUPAC_INCHIKEY>
UPEIOYHNUXXEJN-UHFFFAOYSA-N

> <PUBCHEM_EXACT_MASS>
469.1880675

> <PUBCHEM_MOLECULAR_FORMULA>
C24H28ClN5O3

> <PUBCHEM_MOLECULAR_WEIGHT>
470.0

> <PUBCHEM_OPENEYE_CAN_SMILES>
CC1(C(=O)N(C(=O)N1)CC(CN2CCN(CC2)C3=CC=CC=C3C#N)O)C4=CC=CC=C4.Cl

> <PUBCHEM_OPENEYE_ISO_SMILES>
CC1(C(=O)N(C(=O)N1)CC(CN2CCN(CC2)C3=CC=CC=C3C#N)O)C4=CC=CC=C4.Cl

> <PUBCHEM_CACTVS_TPSA>
99.9

> <PUBCHEM_MONOISOTOPIC_WEIGHT>
469.1880675

> <PUBCHEM_TOTAL_CHARGE>
0

> <PUBCHEM_HEAVY_ATOM_COUNT>
33

> <PUBCHEM_ATOM_DEF_STEREO_COUNT>
0

> <PUBCHEM_ATOM_UDEF_STEREO_COUNT>
2

> <PUBCHEM_BOND_DEF_STEREO_COUNT>
0

> <PUBCHEM_BOND_UDEF_STEREO_COUNT>
0

> <PUBCHEM_ISOTOPIC_ATOM_COUNT>
0

> <PUBCHEM_COMPONENT_COUNT>
2

> <PUBCHEM_CACTVS_TAUTO_COUNT>
-1

> <PUBCHEM_COORDINATE_TYPE>
1
5
255

> <PUBCHEM_BONDANNOTATIONS>
16  22  3
13  2  3
20  23  8
20  24  8
21  25  8
21  26  8
23  27  8
24  28  8
25  29  8
26  30  8
27  31  8
28  31  8
29  32  8
30  32  8

$$$$
