23631172
  -OEChem-09292322252D

 66 70  0     1  0  0  0  0  0999 V2000
    7.0704   -1.1039    0.0000 S   0  0  0  0  0  0  0  0  0  0  0  0
    2.1045   -3.3673    0.0000 O   0  0  0  0  0  0  0  0  0  0  0  0
   16.5065    1.9948    0.0000 O   0  0  0  0  0  0  0  0  0  0  0  0
   10.0704    0.6281    0.0000 N   0  0  3  0  0  0  0  0  0  0  0  0
    5.4826   -1.9129    0.0000 N   0  0  0  0  0  0  0  0  0  0  0  0
    4.5316   -0.6039    0.0000 N   0  0  0  0  0  0  0  0  0  0  0  0
    5.4826   -0.2949    0.0000 N   0  0  0  0  0  0  0  0  0  0  0  0
   15.8403    1.2491    0.0000 N   0  0  0  0  0  0  0  0  0  0  0  0
    3.7226   -2.1917    0.0000 C   0  0  0  0  0  0  0  0  0  0  0  0
    3.8271   -3.1862    0.0000 C   0  0  0  0  0  0  0  0  0  0  0  0
    2.8090   -1.7850    0.0000 C   0  0  0  0  0  0  0  0  0  0  0  0
   10.5043    1.5291    0.0000 C   0  0  0  0  0  0  0  0  0  0  0  0
   10.5043   -0.2728    0.0000 C   0  0  0  0  0  0  0  0  0  0  0  0
   11.4792    1.7516    0.0000 C   0  0  0  0  0  0  0  0  0  0  0  0
   11.4792   -0.4953    0.0000 C   0  0  0  0  0  0  0  0  0  0  0  0
    9.0704    0.6281    0.0000 C   0  0  0  0  0  0  0  0  0  0  0  0
   12.2611    1.1281    0.0000 C   0  0  0  0  0  0  0  0  0  0  0  0
   12.2611    0.1281    0.0000 C   0  0  0  0  0  0  0  0  0  0  0  0
    4.5316   -1.6039    0.0000 C   0  0  0  0  0  0  0  0  0  0  0  0
    3.0181   -3.7740    0.0000 C   0  0  0  0  0  0  0  0  0  0  0  0
    2.0000   -2.3727    0.0000 C   0  0  0  0  0  0  0  0  0  0  0  0
    8.5704   -0.2379    0.0000 C   0  0  0  0  0  0  0  0  0  0  0  0
   13.1550    1.6628    0.0000 C   0  0  0  0  0  0  0  0  0  0  0  0
    7.5704   -0.2379    0.0000 C   0  0  0  0  0  0  0  0  0  0  0  0
   13.1550   -0.4065    0.0000 C   0  0  0  0  0  0  0  0  0  0  0  0
    6.0704   -1.1039    0.0000 C   0  0  0  0  0  0  0  0  0  0  0  0
   14.0611    1.1490    0.0000 C   0  0  0  0  0  0  0  0  0  0  0  0
   14.0611    0.1073    0.0000 C   0  0  0  0  0  0  0  0  0  0  0  0
    5.7916   -2.8640    0.0000 C   0  0  0  0  0  0  0  0  0  0  0  0
   14.9252    1.6523    0.0000 C   0  0  0  0  0  0  0  0  0  0  0  0
   15.0259    2.6472    0.0000 C   0  0  0  0  0  0  0  0  0  0  0  0
   16.0032    2.8589    0.0000 C   0  0  0  0  0  0  0  0  0  0  0  0
   16.4064    3.7740    0.0000 C   0  0  0  0  0  0  0  0  0  0  0  0
    3.6578   -1.5751    0.0000 H   0  0  0  0  0  0  0  0  0  0  0  0
    4.0989   -3.7435    0.0000 H   0  0  0  0  0  0  0  0  0  0  0  0
    4.4231   -3.0153    0.0000 H   0  0  0  0  0  0  0  0  0  0  0  0
    3.1557   -1.2710    0.0000 H   0  0  0  0  0  0  0  0  0  0  0  0
    2.3630   -1.3543    0.0000 H   0  0  0  0  0  0  0  0  0  0  0  0
   10.5043    2.1491    0.0000 H   0  0  0  0  0  0  0  0  0  0  0  0
    9.8998    1.6671    0.0000 H   0  0  0  0  0  0  0  0  0  0  0  0
    9.8998   -0.4108    0.0000 H   0  0  0  0  0  0  0  0  0  0  0  0
   10.5043   -0.8928    0.0000 H   0  0  0  0  0  0  0  0  0  0  0  0
   11.9640    2.1382    0.0000 H   0  0  0  0  0  0  0  0  0  0  0  0
   11.2102    2.3102    0.0000 H   0  0  0  0  0  0  0  0  0  0  0  0
   11.2102   -1.0540    0.0000 H   0  0  0  0  0  0  0  0  0  0  0  0
   11.9640   -0.8819    0.0000 H   0  0  0  0  0  0  0  0  0  0  0  0
    9.1781    1.2387    0.0000 H   0  0  0  0  0  0  0  0  0  0  0  0
    8.4878    0.8402    0.0000 H   0  0  0  0  0  0  0  0  0  0  0  0
    2.6714   -4.2880    0.0000 H   0  0  0  0  0  0  0  0  0  0  0  0
    3.4641   -4.2047    0.0000 H   0  0  0  0  0  0  0  0  0  0  0  0
    1.7282   -1.8155    0.0000 H   0  0  0  0  0  0  0  0  0  0  0  0
    1.4040   -2.5436    0.0000 H   0  0  0  0  0  0  0  0  0  0  0  0
    8.4628   -0.8485    0.0000 H   0  0  0  0  0  0  0  0  0  0  0  0
    9.1530   -0.4499    0.0000 H   0  0  0  0  0  0  0  0  0  0  0  0
   13.1478    2.2828    0.0000 H   0  0  0  0  0  0  0  0  0  0  0  0
    7.6781    0.3727    0.0000 H   0  0  0  0  0  0  0  0  0  0  0  0
    6.9878   -0.0258    0.0000 H   0  0  0  0  0  0  0  0  0  0  0  0
   13.1478   -1.0265    0.0000 H   0  0  0  0  0  0  0  0  0  0  0  0
   14.5968   -0.2047    0.0000 H   0  0  0  0  0  0  0  0  0  0  0  0
    5.2020   -3.0556    0.0000 H   0  0  0  0  0  0  0  0  0  0  0  0
    5.9832   -3.4536    0.0000 H   0  0  0  0  0  0  0  0  0  0  0  0
    6.3813   -2.6724    0.0000 H   0  0  0  0  0  0  0  0  0  0  0  0
   14.5635    3.0603    0.0000 H   0  0  0  0  0  0  0  0  0  0  0  0
   16.9738    3.5240    0.0000 H   0  0  0  0  0  0  0  0  0  0  0  0
   16.6564    4.3414    0.0000 H   0  0  0  0  0  0  0  0  0  0  0  0
   15.8390    4.0240    0.0000 H   0  0  0  0  0  0  0  0  0  0  0  0
  1 24  1  0  0  0  0
  1 26  1  0  0  0  0
  2 20  1  0  0  0  0
  2 21  1  0  0  0  0
  3  8  1  0  0  0  0
  3 32  1  0  0  0  0
  4 12  1  0  0  0  0
  4 13  1  0  0  0  0
  4 16  1  0  0  0  0
  5 19  1  0  0  0  0
  5 26  1  0  0  0  0
  5 29  1  0  0  0  0
  6  7  1  0  0  0  0
  6 19  2  0  0  0  0
  7 26  2  0  0  0  0
  8 30  2  0  0  0  0
  9 10  1  0  0  0  0
  9 11  1  0  0  0  0
  9 19  1  0  0  0  0
  9 34  1  0  0  0  0
 10 20  1  0  0  0  0
 10 35  1  0  0  0  0
 10 36  1  0  0  0  0
 11 21  1  0  0  0  0
 11 37  1  0  0  0  0
 11 38  1  0  0  0  0
 12 14  1  0  0  0  0
 12 39  1  0  0  0  0
 12 40  1  0  0  0  0
 13 15  1  0  0  0  0
 13 41  1  0  0  0  0
 13 42  1  0  0  0  0
 14 17  1  0  0  0  0
 14 43  1  0  0  0  0
 14 44  1  0  0  0  0
 15 18  1  0  0  0  0
 15 45  1  0  0  0  0
 15 46  1  0  0  0  0
 16 22  1  0  0  0  0
 16 47  1  0  0  0  0
 16 48  1  0  0  0  0
 17 18  2  0  0  0  0
 17 23  1  0  0  0  0
 18 25  1  0  0  0  0
 20 49  1  0  0  0  0
 20 50  1  0  0  0  0
 21 51  1  0  0  0  0
 21 52  1  0  0  0  0
 22 24  1  0  0  0  0
 22 53  1  0  0  0  0
 22 54  1  0  0  0  0
 23 27  2  0  0  0  0
 23 55  1  0  0  0  0
 24 56  1  0  0  0  0
 24 57  1  0  0  0  0
 25 28  2  0  0  0  0
 25 58  1  0  0  0  0
 27 28  1  0  0  0  0
 27 30  1  0  0  0  0
 28 59  1  0  0  0  0
 29 60  1  0  0  0  0
 29 61  1  0  0  0  0
 29 62  1  0  0  0  0
 30 31  1  0  0  0  0
 31 32  2  0  0  0  0
 31 63  1  0  0  0  0
 32 33  1  0  0  0  0
 33 64  1  0  0  0  0
 33 65  1  0  0  0  0
 33 66  1  0  0  0  0
M  END
> <PUBCHEM_COMPOUND_CID>
23631172

> <PUBCHEM_COMPOUND_CANONICALIZED>
1

> <PUBCHEM_CACTVS_COMPLEXITY>
609

> <PUBCHEM_CACTVS_HBOND_ACCEPTOR>
7

> <PUBCHEM_CACTVS_HBOND_DONOR>
0

> <PUBCHEM_CACTVS_ROTATABLE_BOND>
7

> <PUBCHEM_CACTVS_SUBSKEYS>
AAADcfB7sABAAAAAAAAAAAAAAAAAAWLAAAA0QAAABYAAAAAB8AAAHgQMAAAADQzl3wazlJccFAirA6ZyZgCS0AtkIrA92CE+bNqILrqgmZOGMYBmiBqIyUe4yOCOwAACAAAQAACAAAQAACAAAAAAAAAAAA==

> <PUBCHEM_IUPAC_OPENEYE_NAME>
5-methyl-3-[3-[3-[(4-methyl-5-tetrahydropyran-4-yl-1,2,4-triazol-3-yl)sulfanyl]propyl]-1,2,4,5-tetrahydro-3-benzazepin-7-yl]isoxazole

> <PUBCHEM_IUPAC_CAS_NAME>
5-methyl-3-[3-[3-[[4-methyl-5-(4-oxanyl)-1,2,4-triazol-3-yl]thio]propyl]-1,2,4,5-tetrahydro-3-benzazepin-7-yl]isoxazole

> <PUBCHEM_IUPAC_NAME_MARKUP>
5-methyl-3-[3-[3-[[4-methyl-5-(oxan-4-yl)-1,2,4-triazol-3-yl]sulfanyl]propyl]-1,2,4,5-tetrahydro-3-benzazepin-7-yl]-1,2-oxazole

> <PUBCHEM_IUPAC_NAME>
5-methyl-3-[3-[3-[[4-methyl-5-(oxan-4-yl)-1,2,4-triazol-3-yl]sulfanyl]propyl]-1,2,4,5-tetrahydro-3-benzazepin-7-yl]-1,2-oxazole

> <PUBCHEM_IUPAC_SYSTEMATIC_NAME>
5-methyl-3-[3-[3-[[4-methyl-5-(oxan-4-yl)-1,2,4-triazol-3-yl]sulfanyl]propyl]-1,2,4,5-tetrahydro-3-benzazepin-7-yl]-1,2-oxazole

> <PUBCHEM_IUPAC_TRADITIONAL_NAME>
5-methyl-3-[3-[3-[(4-methyl-5-tetrahydropyran-4-yl-1,2,4-triazol-3-yl)thio]propyl]-1,2,4,5-tetrahydro-3-benzazepin-7-yl]isoxazole

> <PUBCHEM_IUPAC_INCHI>
InChI=1S/C25H33N5O2S/c1-18-16-23(28-32-18)22-5-4-19-6-11-30(12-7-21(19)17-22)10-3-15-33-25-27-26-24(29(25)2)20-8-13-31-14-9-20/h4-5,16-17,20H,3,6-15H2,1-2H3

> <PUBCHEM_IUPAC_INCHIKEY>
TVMNFBNOOMKBOO-UHFFFAOYSA-N

> <PUBCHEM_XLOGP3_AA>
3.6

> <PUBCHEM_EXACT_MASS>
467.23549649

> <PUBCHEM_MOLECULAR_FORMULA>
C25H33N5O2S

> <PUBCHEM_MOLECULAR_WEIGHT>
467.6

> <PUBCHEM_OPENEYE_CAN_SMILES>
CC1=CC(=NO1)C2=CC3=C(CCN(CC3)CCCSC4=NN=C(N4C)C5CCOCC5)C=C2

> <PUBCHEM_OPENEYE_ISO_SMILES>
CC1=CC(=NO1)C2=CC3=C(CCN(CC3)CCCSC4=NN=C(N4C)C5CCOCC5)C=C2

> <PUBCHEM_CACTVS_TPSA>
94.5

> <PUBCHEM_MONOISOTOPIC_WEIGHT>
467.23549649

> <PUBCHEM_TOTAL_CHARGE>
0

> <PUBCHEM_HEAVY_ATOM_COUNT>
33

> <PUBCHEM_ATOM_DEF_STEREO_COUNT>
0

> <PUBCHEM_ATOM_UDEF_STEREO_COUNT>
0

> <PUBCHEM_BOND_DEF_STEREO_COUNT>
0

> <PUBCHEM_BOND_UDEF_STEREO_COUNT>
0

> <PUBCHEM_ISOTOPIC_ATOM_COUNT>
0

> <PUBCHEM_COMPONENT_COUNT>
1

> <PUBCHEM_CACTVS_TAUTO_COUNT>
-1

> <PUBCHEM_COORDINATE_TYPE>
1
5
255

> <PUBCHEM_BONDANNOTATIONS>
17  18  8
17  23  8
18  25  8
23  27  8
25  28  8
27  28  8
3  32  8
3  8  8
30  31  8
31  32  8
5  19  8
5  26  8
6  19  8
6  7  8
7  26  8
8  30  8

$$$$
