137656918
  -OEChem-09292322472D

 39 43  0     0  0  0  0  0  0999 V2000
    4.0745    0.3640    0.0000 S   0  0  0  0  0  0  0  0  0  0  0  0
    5.9710   -3.4230    0.0000 O   0  0  0  0  0  0  0  0  0  0  0  0
    4.9176    0.9018    0.0000 O   0  0  0  0  0  0  0  0  0  0  0  0
    3.2314   -0.1737    0.0000 O   0  0  0  0  0  0  0  0  0  0  0  0
    4.6123   -0.4791    0.0000 N   0  0  0  0  0  0  0  0  0  0  0  0
    8.5691   -3.9230    0.0000 N   0  0  0  0  0  0  0  0  0  0  0  0
    4.2110   -1.3883    0.0000 C   0  0  0  0  0  0  0  0  0  0  0  0
    5.1050   -1.9230    0.0000 C   0  0  0  0  0  0  0  0  0  0  0  0
    5.9710   -1.4230    0.0000 C   0  0  0  0  0  0  0  0  0  0  0  0
    5.6059   -0.4987    0.0000 C   0  0  0  0  0  0  0  0  0  0  0  0
    3.5368    1.2071    0.0000 C   0  0  0  0  0  0  0  0  0  0  0  0
    5.1050   -2.9230    0.0000 C   0  0  0  0  0  0  0  0  0  0  0  0
    3.9980    2.0944    0.0000 C   0  0  0  0  0  0  0  0  0  0  0  0
    3.3050   -1.9022    0.0000 C   0  0  0  0  0  0  0  0  0  0  0  0
    6.8370   -1.9230    0.0000 C   0  0  0  0  0  0  0  0  0  0  0  0
    3.4603    2.9375    0.0000 C   0  0  0  0  0  0  0  0  0  0  0  0
    2.5378    1.1630    0.0000 C   0  0  0  0  0  0  0  0  0  0  0  0
    4.2110   -3.4576    0.0000 C   0  0  0  0  0  0  0  0  0  0  0  0
    3.3050   -2.9438    0.0000 C   0  0  0  0  0  0  0  0  0  0  0  0
    6.8370   -2.9230    0.0000 C   0  0  0  0  0  0  0  0  0  0  0  0
    5.0392    2.1243    0.0000 C   0  0  0  0  0  0  0  0  0  0  0  0
    2.4613    2.8933    0.0000 C   0  0  0  0  0  0  0  0  0  0  0  0
    2.0000    2.0061    0.0000 C   0  0  0  0  0  0  0  0  0  0  0  0
    3.9265    3.8690    0.0000 C   0  0  0  0  0  0  0  0  0  0  0  0
    5.5268    3.0448    0.0000 C   0  0  0  0  0  0  0  0  0  0  0  0
    4.9667    3.9230    0.0000 C   0  0  0  0  0  0  0  0  0  0  0  0
    7.7031   -3.4230    0.0000 C   0  0  0  0  0  0  0  0  0  0  0  0
    5.9596    0.0105    0.0000 H   0  0  0  0  0  0  0  0  0  0  0  0
    2.7692   -1.5901    0.0000 H   0  0  0  0  0  0  0  0  0  0  0  0
    7.3740   -1.6130    0.0000 H   0  0  0  0  0  0  0  0  0  0  0  0
    2.2518    0.6129    0.0000 H   0  0  0  0  0  0  0  0  0  0  0  0
    4.2182   -4.0776    0.0000 H   0  0  0  0  0  0  0  0  0  0  0  0
    2.7692   -3.2559    0.0000 H   0  0  0  0  0  0  0  0  0  0  0  0
    5.3666    1.5978    0.0000 H   0  0  0  0  0  0  0  0  0  0  0  0
    2.1279    3.4161    0.0000 H   0  0  0  0  0  0  0  0  0  0  0  0
    1.3806    1.9787    0.0000 H   0  0  0  0  0  0  0  0  0  0  0  0
    3.5871    4.3878    0.0000 H   0  0  0  0  0  0  0  0  0  0  0  0
    6.1463    3.0698    0.0000 H   0  0  0  0  0  0  0  0  0  0  0  0
    5.2506    4.4742    0.0000 H   0  0  0  0  0  0  0  0  0  0  0  0
  1  3  2  0  0  0  0
  1  4  2  0  0  0  0
  1  5  1  0  0  0  0
  1 11  1  0  0  0  0
  2 12  1  0  0  0  0
  2 20  1  0  0  0  0
  5  7  1  0  0  0  0
  5 10  1  0  0  0  0
  6 27  3  0  0  0  0
  7  8  2  0  0  0  0
  7 14  1  0  0  0  0
  8  9  1  0  0  0  0
  8 12  1  0  0  0  0
  9 10  2  0  0  0  0
  9 15  1  0  0  0  0
 10 28  1  0  0  0  0
 11 13  1  0  0  0  0
 11 17  2  0  0  0  0
 12 18  2  0  0  0  0
 13 16  1  0  0  0  0
 13 21  2  0  0  0  0
 14 19  2  0  0  0  0
 14 29  1  0  0  0  0
 15 20  2  0  0  0  0
 15 30  1  0  0  0  0
 16 22  1  0  0  0  0
 16 24  2  0  0  0  0
 17 23  1  0  0  0  0
 17 31  1  0  0  0  0
 18 19  1  0  0  0  0
 18 32  1  0  0  0  0
 19 33  1  0  0  0  0
 20 27  1  0  0  0  0
 21 25  1  0  0  0  0
 21 34  1  0  0  0  0
 22 23  2  0  0  0  0
 22 35  1  0  0  0  0
 23 36  1  0  0  0  0
 24 26  1  0  0  0  0
 24 37  1  0  0  0  0
 25 26  2  0  0  0  0
 25 38  1  0  0  0  0
 26 39  1  0  0  0  0
M  END
> <PUBCHEM_COMPOUND_CID>
137656918

> <PUBCHEM_COMPOUND_CANONICALIZED>
1

> <PUBCHEM_CACTVS_COMPLEXITY>
777

> <PUBCHEM_CACTVS_HBOND_ACCEPTOR>
4

> <PUBCHEM_CACTVS_HBOND_DONOR>
0

> <PUBCHEM_CACTVS_ROTATABLE_BOND>
2

> <PUBCHEM_CACTVS_SUBSKEYS>
AAADccB7MABAAAAAAAAAAAAAAAAAAWAAAAAwYMEAAAAAAFjB9AAAHgQAQAAADAzB3gQ8x/IIFAKwBzRnRHDiiDAxIiAI2Dg+bJgMJuLEsZuGOCjmwBnI6Aew0OMOgAAAggAeAAAAAAEEADwAAAAAAAAAAA==

> <PUBCHEM_IUPAC_OPENEYE_NAME>
2-(1-naphthylsulfonyl)-7-oxa-2-azatricyclo[6.3.1.04,12]dodeca-1(12),3,5,8,10-pentaene-6-carbonitrile

> <PUBCHEM_IUPAC_CAS_NAME>
2-(1-naphthalenylsulfonyl)-7-oxa-2-azatricyclo[6.3.1.04,12]dodeca-1(12),3,5,8,10-pentaene-6-carbonitrile

> <PUBCHEM_IUPAC_NAME_MARKUP>
2-naphthalen-1-ylsulfonyl-7-oxa-2-azatricyclo[6.3.1.0<SUP>4,12</SUP>]dodeca-1(12),3,5,8,10-pentaene-6-carbonitrile

> <PUBCHEM_IUPAC_NAME>
2-naphthalen-1-ylsulfonyl-7-oxa-2-azatricyclo[6.3.1.04,12]dodeca-1(12),3,5,8,10-pentaene-6-carbonitrile

> <PUBCHEM_IUPAC_SYSTEMATIC_NAME>
2-naphthalen-1-ylsulfonyl-7-oxa-2-azatricyclo[6.3.1.04,12]dodeca-1(12),3,5,8,10-pentaene-6-carbonitrile

> <PUBCHEM_IUPAC_TRADITIONAL_NAME>
2-(1-naphthylsulfonyl)-7-oxa-2-azatricyclo[6.3.1.04,12]dodeca-1(12),3,5,8,10-pentaene-6-carbonitrile

> <PUBCHEM_IUPAC_INCHI>
InChI=1S/C21H12N2O3S/c22-12-16-11-15-13-23(18-8-4-9-19(26-16)21(15)18)27(24,25)20-10-3-6-14-5-1-2-7-17(14)20/h1-11,13H

> <PUBCHEM_IUPAC_INCHIKEY>
PSFIYMABNVWJEG-UHFFFAOYSA-N

> <PUBCHEM_XLOGP3_AA>
4.5

> <PUBCHEM_EXACT_MASS>
372.05686342

> <PUBCHEM_MOLECULAR_FORMULA>
C21H12N2O3S

> <PUBCHEM_MOLECULAR_WEIGHT>
372.4

> <PUBCHEM_OPENEYE_CAN_SMILES>
C1=CC=C2C(=C1)C=CC=C2S(=O)(=O)N3C=C4C=C(OC5=CC=CC3=C54)C#N

> <PUBCHEM_OPENEYE_ISO_SMILES>
C1=CC=C2C(=C1)C=CC=C2S(=O)(=O)N3C=C4C=C(OC5=CC=CC3=C54)C#N

> <PUBCHEM_CACTVS_TPSA>
80.5

> <PUBCHEM_MONOISOTOPIC_WEIGHT>
372.05686342

> <PUBCHEM_TOTAL_CHARGE>
0

> <PUBCHEM_HEAVY_ATOM_COUNT>
27

> <PUBCHEM_ATOM_DEF_STEREO_COUNT>
0

> <PUBCHEM_ATOM_UDEF_STEREO_COUNT>
0

> <PUBCHEM_BOND_DEF_STEREO_COUNT>
0

> <PUBCHEM_BOND_UDEF_STEREO_COUNT>
0

> <PUBCHEM_ISOTOPIC_ATOM_COUNT>
0

> <PUBCHEM_COMPONENT_COUNT>
1

> <PUBCHEM_CACTVS_TAUTO_COUNT>
-1

> <PUBCHEM_COORDINATE_TYPE>
1
5
255

> <PUBCHEM_BONDANNOTATIONS>
11  13  8
11  17  8
12  18  8
13  16  8
13  21  8
14  19  8
16  22  8
16  24  8
17  23  8
18  19  8
21  25  8
22  23  8
24  26  8
25  26  8
5  10  8
5  7  8
7  14  8
7  8  8
8  12  8
8  9  8
9  10  8

$$$$
