46180257
  -OEChem-09292322482D

 41 45  0     1  0  0  0  0  0999 V2000
    3.8769   -1.7093    0.0000 O   0  0  0  0  0  0  0  0  0  0  0  0
    4.6673    3.0128    0.0000 N   0  0  3  0  0  0  0  0  0  0  0  0
    4.6660    2.0211    0.0000 C   0  0  1  0  0  0  0  0  0  0  0  0
    3.8000    1.5211    0.0000 C   0  0  0  0  0  0  0  0  0  0  0  0
    5.5321    1.5211    0.0000 C   0  0  0  0  0  0  0  0  0  0  0  0
    2.9061    2.0558    0.0000 C   0  0  0  0  0  0  0  0  0  0  0  0
    3.8000    0.5211    0.0000 C   0  0  0  0  0  0  0  0  0  0  0  0
    3.8152    3.5203    0.0000 C   0  0  0  0  0  0  0  0  0  0  0  0
    2.9439    3.0468    0.0000 C   0  0  0  0  0  0  0  0  0  0  0  0
    5.5321    0.5211    0.0000 C   0  0  0  0  0  0  0  0  0  0  0  0
    4.6660    0.0211    0.0000 C   0  0  0  0  0  0  0  0  0  0  0  0
    4.6500   -1.0204    0.0000 C   0  0  0  0  0  0  0  0  0  0  0  0
    5.5370    3.5064    0.0000 C   0  0  0  0  0  0  0  0  0  0  0  0
    2.0000    1.5419    0.0000 C   0  0  0  0  0  0  0  0  0  0  0  0
    2.9061   -0.0135    0.0000 C   0  0  0  0  0  0  0  0  0  0  0  0
    6.4421    0.0143    0.0000 C   0  0  0  0  0  0  0  0  0  0  0  0
    5.5480   -1.5482    0.0000 C   0  0  0  0  0  0  0  0  0  0  0  0
    2.0000    0.5003    0.0000 C   0  0  0  0  0  0  0  0  0  0  0  0
    6.4501   -1.0273    0.0000 C   0  0  0  0  0  0  0  0  0  0  0  0
    5.3223   -2.5587    0.0000 C   0  0  0  0  0  0  0  0  0  0  0  0
    4.2916   -2.6581    0.0000 C   0  0  0  0  0  0  0  0  0  0  0  0
    3.7850   -3.5203    0.0000 C   0  0  0  0  0  0  0  0  0  0  0  0
    5.4024    2.4456    0.0000 H   0  0  0  0  0  0  0  0  0  0  0  0
    6.1426    1.4135    0.0000 H   0  0  0  0  0  0  0  0  0  0  0  0
    5.7441    2.1037    0.0000 H   0  0  0  0  0  0  0  0  0  0  0  0
    4.2221    3.9881    0.0000 H   0  0  0  0  0  0  0  0  0  0  0  0
    3.4271    4.0038    0.0000 H   0  0  0  0  0  0  0  0  0  0  0  0
    2.7494    3.6354    0.0000 H   0  0  0  0  0  0  0  0  0  0  0  0
    2.3300    2.9599    0.0000 H   0  0  0  0  0  0  0  0  0  0  0  0
    5.8430    2.9672    0.0000 H   0  0  0  0  0  0  0  0  0  0  0  0
    6.0762    3.8124    0.0000 H   0  0  0  0  0  0  0  0  0  0  0  0
    5.2310    4.0456    0.0000 H   0  0  0  0  0  0  0  0  0  0  0  0
    1.4643    1.8540    0.0000 H   0  0  0  0  0  0  0  0  0  0  0  0
    2.9132   -0.6335    0.0000 H   0  0  0  0  0  0  0  0  0  0  0  0
    6.9754    0.3305    0.0000 H   0  0  0  0  0  0  0  0  0  0  0  0
    1.4643    0.1882    0.0000 H   0  0  0  0  0  0  0  0  0  0  0  0
    6.9882   -1.3353    0.0000 H   0  0  0  0  0  0  0  0  0  0  0  0
    5.7328   -3.0234    0.0000 H   0  0  0  0  0  0  0  0  0  0  0  0
    3.2504   -3.2061    0.0000 H   0  0  0  0  0  0  0  0  0  0  0  0
    3.4708   -4.0548    0.0000 H   0  0  0  0  0  0  0  0  0  0  0  0
    4.3195   -3.8344    0.0000 H   0  0  0  0  0  0  0  0  0  0  0  0
  1 12  1  0  0  0  0
  1 21  1  0  0  0  0
  2  3  1  0  0  0  0
  2  8  1  0  0  0  0
  2 13  1  0  0  0  0
  3  4  1  0  0  0  0
  3  5  1  0  0  0  0
  3 23  1  1  0  0  0
  4  6  2  0  0  0  0
  4  7  1  0  0  0  0
  5 10  1  0  0  0  0
  5 24  1  0  0  0  0
  5 25  1  0  0  0  0
  6  9  1  0  0  0  0
  6 14  1  0  0  0  0
  7 11  1  0  0  0  0
  7 15  2  0  0  0  0
  8  9  1  0  0  0  0
  8 26  1  0  0  0  0
  8 27  1  0  0  0  0
  9 28  1  0  0  0  0
  9 29  1  0  0  0  0
 10 11  2  0  0  0  0
 10 16  1  0  0  0  0
 11 12  1  0  0  0  0
 12 17  2  0  0  0  0
 13 30  1  0  0  0  0
 13 31  1  0  0  0  0
 13 32  1  0  0  0  0
 14 18  2  0  0  0  0
 14 33  1  0  0  0  0
 15 18  1  0  0  0  0
 15 34  1  0  0  0  0
 16 19  2  0  0  0  0
 16 35  1  0  0  0  0
 17 19  1  0  0  0  0
 17 20  1  0  0  0  0
 18 36  1  0  0  0  0
 19 37  1  0  0  0  0
 20 21  2  0  0  0  0
 20 38  1  0  0  0  0
 21 22  1  0  0  0  0
 22 39  1  0  0  0  0
 22 40  1  0  0  0  0
 22 41  1  0  0  0  0
M  END
> <PUBCHEM_COMPOUND_CID>
46180257

> <PUBCHEM_COMPOUND_CANONICALIZED>
1

> <PUBCHEM_CACTVS_COMPLEXITY>
437

> <PUBCHEM_CACTVS_HBOND_ACCEPTOR>
2

> <PUBCHEM_CACTVS_HBOND_DONOR>
0

> <PUBCHEM_CACTVS_ROTATABLE_BOND>
0

> <PUBCHEM_CACTVS_SUBSKEYS>
AAADceB6IAAAAAAAAAAAAAAAAAAAASAAAAA8YMEAAAAAAEjx9AAAHgAAAAAADCzBmAQyBsMABECIAqBSAACCCAAkIAAIiAEODMgMJjKEtRuGOSjkwBGIqYeY2fOewAADAAAYAACQAAaAADQAAAAAAAAAAA==

> <PUBCHEM_IUPAC_OPENEYE_NAME>
(12R)-5,13-dimethyl-4-oxa-13-azapentacyclo[10.7.1.02,10.03,7.016,20]icosa-1(19),2(10),3(7),5,8,16(20),17-heptaene

> <PUBCHEM_IUPAC_CAS_NAME>
(12R)-5,13-dimethyl-4-oxa-13-azapentacyclo[10.7.1.02,10.03,7.016,20]eicosa-1(19),2(10),3(7),5,8,16(20),17-heptaene

> <PUBCHEM_IUPAC_NAME_MARKUP>
(12<I>R</I>)-5,13-dimethyl-4-oxa-13-azapentacyclo[10.7.1.0<SUP>2,10</SUP>.0<SUP>3,7</SUP>.0<SUP>16,20</SUP>]icosa-1(19),2(10),3(7),5,8,16(20),17-heptaene

> <PUBCHEM_IUPAC_NAME>
(12R)-5,13-dimethyl-4-oxa-13-azapentacyclo[10.7.1.02,10.03,7.016,20]icosa-1(19),2(10),3(7),5,8,16(20),17-heptaene

> <PUBCHEM_IUPAC_SYSTEMATIC_NAME>
(12R)-5,13-dimethyl-4-oxa-13-azapentacyclo[10.7.1.02,10.03,7.016,20]icosa-1(19),2(10),3(7),5,8,16(20),17-heptaene

> <PUBCHEM_IUPAC_TRADITIONAL_NAME>
(12R)-5,13-dimethyl-4-oxa-13-azapentacyclo[10.7.1.02,10.03,7.016,20]eicosa-1(19),2(10),3(7),5,8,16(20),17-heptaene

> <PUBCHEM_IUPAC_INCHI>
InChI=1S/C20H19NO/c1-12-10-15-7-6-14-11-17-18-13(8-9-21(17)2)4-3-5-16(18)19(14)20(15)22-12/h3-7,10,17H,8-9,11H2,1-2H3/t17-/m1/s1

> <PUBCHEM_IUPAC_INCHIKEY>
RUWAMTNSIGQJMG-QGZVFWFLSA-N

> <PUBCHEM_XLOGP3_AA>
4.3

> <PUBCHEM_EXACT_MASS>
289.146664230

> <PUBCHEM_MOLECULAR_FORMULA>
C20H19NO

> <PUBCHEM_MOLECULAR_WEIGHT>
289.4

> <PUBCHEM_OPENEYE_CAN_SMILES>
CC1=CC2=C(O1)C3=C(CC4C5=C(CCN4C)C=CC=C53)C=C2

> <PUBCHEM_OPENEYE_ISO_SMILES>
CC1=CC2=C(O1)C3=C(C[C@@H]4C5=C(CCN4C)C=CC=C53)C=C2

> <PUBCHEM_CACTVS_TPSA>
16.4

> <PUBCHEM_MONOISOTOPIC_WEIGHT>
289.146664230

> <PUBCHEM_TOTAL_CHARGE>
0

> <PUBCHEM_HEAVY_ATOM_COUNT>
22

> <PUBCHEM_ATOM_DEF_STEREO_COUNT>
1

> <PUBCHEM_ATOM_UDEF_STEREO_COUNT>
0

> <PUBCHEM_BOND_DEF_STEREO_COUNT>
0

> <PUBCHEM_BOND_UDEF_STEREO_COUNT>
0

> <PUBCHEM_ISOTOPIC_ATOM_COUNT>
0

> <PUBCHEM_COMPONENT_COUNT>
1

> <PUBCHEM_CACTVS_TAUTO_COUNT>
-1

> <PUBCHEM_COORDINATE_TYPE>
1
5
255

> <PUBCHEM_BONDANNOTATIONS>
1  12  8
1  21  8
10  11  8
10  16  8
11  12  8
12  17  8
14  18  8
15  18  8
16  19  8
17  19  8
17  20  8
20  21  8
3  23  5
4  6  8
4  7  8
6  14  8
7  15  8

$$$$
