168291509
  -OEChem-09292322452D

 64 68  0     0  0  0  0  0  0999 V2000
   13.4848    0.7822    0.0000 Cl  0  0  0  0  0  0  0  0  0  0  0  0
   15.4418    1.1946    0.0000 Cl  0  0  0  0  0  0  0  0  0  0  0  0
    4.3211    0.6210    0.0000 O   0  0  0  0  0  0  0  0  0  0  0  0
   10.1921    1.8584    0.0000 N   0  0  0  0  0  0  0  0  0  0  0  0
    7.9244    0.4954    0.0000 N   0  0  0  0  0  0  0  0  0  0  0  0
   12.1491    2.2708    0.0000 N   0  0  0  0  0  0  0  0  0  0  0  0
    5.9674    0.0830    0.0000 N   0  0  0  0  0  0  0  0  0  0  0  0
    5.2619   -1.8785    0.0000 N   0  0  0  0  0  0  0  0  0  0  0  0
    4.6783   -2.6832    0.0000 N   0  0  0  0  0  0  0  0  0  0  0  0
    9.2136    1.6521    0.0000 C   0  0  0  0  0  0  0  0  0  0  0  0
    8.9030    0.7016    0.0000 C   0  0  0  0  0  0  0  0  0  0  0  0
   10.5028    2.8089    0.0000 C   0  0  0  0  0  0  0  0  0  0  0  0
   10.8600    1.1141    0.0000 C   0  0  0  0  0  0  0  0  0  0  0  0
    7.2566    1.2397    0.0000 C   0  0  0  0  0  0  0  0  0  0  0  0
    7.6138   -0.4551    0.0000 C   0  0  0  0  0  0  0  0  0  0  0  0
   11.4813    3.0151    0.0000 C   0  0  0  0  0  0  0  0  0  0  0  0
   11.8385    1.3203    0.0000 C   0  0  0  0  0  0  0  0  0  0  0  0
    6.2781    1.0335    0.0000 C   0  0  0  0  0  0  0  0  0  0  0  0
    6.6353   -0.6613    0.0000 C   0  0  0  0  0  0  0  0  0  0  0  0
   13.1276    2.4770    0.0000 C   0  0  0  0  0  0  0  0  0  0  0  0
    4.9889   -0.1233    0.0000 C   0  0  0  0  0  0  0  0  0  0  0  0
    4.6783   -1.0738    0.0000 C   0  0  0  0  0  0  0  0  0  0  0  0
   13.7955    1.7327    0.0000 C   0  0  0  0  0  0  0  0  0  0  0  0
   13.4383    3.4275    0.0000 C   0  0  0  0  0  0  0  0  0  0  0  0
    3.7320   -1.3785    0.0000 C   0  0  0  0  0  0  0  0  0  0  0  0
    3.7320   -2.3785    0.0000 C   0  0  0  0  0  0  0  0  0  0  0  0
   14.7740    1.9389    0.0000 C   0  0  0  0  0  0  0  0  0  0  0  0
   14.4168    3.6338    0.0000 C   0  0  0  0  0  0  0  0  0  0  0  0
    2.8660   -0.8785    0.0000 C   0  0  0  0  0  0  0  0  0  0  0  0
   15.0847    2.8895    0.0000 C   0  0  0  0  0  0  0  0  0  0  0  0
    2.8660   -2.8785    0.0000 C   0  0  0  0  0  0  0  0  0  0  0  0
    4.9889   -3.6338    0.0000 C   0  0  0  0  0  0  0  0  0  0  0  0
    2.0000   -1.3785    0.0000 C   0  0  0  0  0  0  0  0  0  0  0  0
    2.0000   -2.3785    0.0000 C   0  0  0  0  0  0  0  0  0  0  0  0
    9.1930    2.2718    0.0000 H   0  0  0  0  0  0  0  0  0  0  0  0
    8.5998    1.7395    0.0000 H   0  0  0  0  0  0  0  0  0  0  0  0
    8.9235    0.0820    0.0000 H   0  0  0  0  0  0  0  0  0  0  0  0
    9.5168    0.6143    0.0000 H   0  0  0  0  0  0  0  0  0  0  0  0
   10.4822    3.4285    0.0000 H   0  0  0  0  0  0  0  0  0  0  0  0
    9.8890    2.8962    0.0000 H   0  0  0  0  0  0  0  0  0  0  0  0
   10.3336    0.7864    0.0000 H   0  0  0  0  0  0  0  0  0  0  0  0
   11.0912    0.5388    0.0000 H   0  0  0  0  0  0  0  0  0  0  0  0
    7.7830    1.5674    0.0000 H   0  0  0  0  0  0  0  0  0  0  0  0
    7.0254    1.8150    0.0000 H   0  0  0  0  0  0  0  0  0  0  0  0
    7.6344   -1.0748    0.0000 H   0  0  0  0  0  0  0  0  0  0  0  0
    8.2276   -0.5425    0.0000 H   0  0  0  0  0  0  0  0  0  0  0  0
   12.0077    3.3427    0.0000 H   0  0  0  0  0  0  0  0  0  0  0  0
   11.2500    3.5904    0.0000 H   0  0  0  0  0  0  0  0  0  0  0  0
   11.8590    0.7006    0.0000 H   0  0  0  0  0  0  0  0  0  0  0  0
   12.4523    1.2329    0.0000 H   0  0  0  0  0  0  0  0  0  0  0  0
    6.2575    1.6532    0.0000 H   0  0  0  0  0  0  0  0  0  0  0  0
    5.6643    1.1208    0.0000 H   0  0  0  0  0  0  0  0  0  0  0  0
    6.1089   -0.9890    0.0000 H   0  0  0  0  0  0  0  0  0  0  0  0
    6.8665   -1.2366    0.0000 H   0  0  0  0  0  0  0  0  0  0  0  0
   13.0242    3.8890    0.0000 H   0  0  0  0  0  0  0  0  0  0  0  0
   14.6094    4.2231    0.0000 H   0  0  0  0  0  0  0  0  0  0  0  0
    2.8660   -0.2585    0.0000 H   0  0  0  0  0  0  0  0  0  0  0  0
   15.6913    3.0173    0.0000 H   0  0  0  0  0  0  0  0  0  0  0  0
    2.8660   -3.4985    0.0000 H   0  0  0  0  0  0  0  0  0  0  0  0
    4.3996   -3.8264    0.0000 H   0  0  0  0  0  0  0  0  0  0  0  0
    5.1815   -4.2231    0.0000 H   0  0  0  0  0  0  0  0  0  0  0  0
    5.5783   -3.4412    0.0000 H   0  0  0  0  0  0  0  0  0  0  0  0
    1.4631   -1.0685    0.0000 H   0  0  0  0  0  0  0  0  0  0  0  0
    1.4631   -2.6885    0.0000 H   0  0  0  0  0  0  0  0  0  0  0  0
  1 23  1  0  0  0  0
  2 27  1  0  0  0  0
  3 21  2  0  0  0  0
  4 10  1  0  0  0  0
  4 12  1  0  0  0  0
  4 13  1  0  0  0  0
  5 11  1  0  0  0  0
  5 14  1  0  0  0  0
  5 15  1  0  0  0  0
  6 16  1  0  0  0  0
  6 17  1  0  0  0  0
  6 20  1  0  0  0  0
  7 18  1  0  0  0  0
  7 19  1  0  0  0  0
  7 21  1  0  0  0  0
  8  9  1  0  0  0  0
  8 22  2  0  0  0  0
  9 26  1  0  0  0  0
  9 32  1  0  0  0  0
 10 11  1  0  0  0  0
 10 35  1  0  0  0  0
 10 36  1  0  0  0  0
 11 37  1  0  0  0  0
 11 38  1  0  0  0  0
 12 16  1  0  0  0  0
 12 39  1  0  0  0  0
 12 40  1  0  0  0  0
 13 17  1  0  0  0  0
 13 41  1  0  0  0  0
 13 42  1  0  0  0  0
 14 18  1  0  0  0  0
 14 43  1  0  0  0  0
 14 44  1  0  0  0  0
 15 19  1  0  0  0  0
 15 45  1  0  0  0  0
 15 46  1  0  0  0  0
 16 47  1  0  0  0  0
 16 48  1  0  0  0  0
 17 49  1  0  0  0  0
 17 50  1  0  0  0  0
 18 51  1  0  0  0  0
 18 52  1  0  0  0  0
 19 53  1  0  0  0  0
 19 54  1  0  0  0  0
 20 23  2  0  0  0  0
 20 24  1  0  0  0  0
 21 22  1  0  0  0  0
 22 25  1  0  0  0  0
 23 27  1  0  0  0  0
 24 28  2  0  0  0  0
 24 55  1  0  0  0  0
 25 26  1  0  0  0  0
 25 29  2  0  0  0  0
 26 31  2  0  0  0  0
 27 30  2  0  0  0  0
 28 30  1  0  0  0  0
 28 56  1  0  0  0  0
 29 33  1  0  0  0  0
 29 57  1  0  0  0  0
 30 58  1  0  0  0  0
 31 34  1  0  0  0  0
 31 59  1  0  0  0  0
 32 60  1  0  0  0  0
 32 61  1  0  0  0  0
 32 62  1  0  0  0  0
 33 34  2  0  0  0  0
 33 63  1  0  0  0  0
 34 64  1  0  0  0  0
M  END
> <PUBCHEM_COMPOUND_CID>
168291509

> <PUBCHEM_COMPOUND_CANONICALIZED>
1

> <PUBCHEM_CACTVS_COMPLEXITY>
684

> <PUBCHEM_CACTVS_HBOND_ACCEPTOR>
5

> <PUBCHEM_CACTVS_HBOND_DONOR>
0

> <PUBCHEM_CACTVS_ROTATABLE_BOND>
5

> <PUBCHEM_CACTVS_SUBSKEYS>
AAADceB7oAAGAAAAAAAAAAAAAAAAAWAAAAA8eIEAAAAAAFgB9AAAHgIIAAAADArBniQywPMIAACqAyVyVACSBAAnhwAY2mG4ZtgIYLLB19HUpQhgjgDIyQcciICOAAAAAAICABQAAAAABAQAKAAAAAAAAA==

> <PUBCHEM_IUPAC_OPENEYE_NAME>
[4-[2-[4-(2,3-dichlorophenyl)piperazin-1-yl]ethyl]piperazin-1-yl]-(1-methylindazol-3-yl)methanone

> <PUBCHEM_IUPAC_CAS_NAME>
[4-[2-[4-(2,3-dichlorophenyl)-1-piperazinyl]ethyl]-1-piperazinyl]-(1-methyl-3-indazolyl)methanone

> <PUBCHEM_IUPAC_NAME_MARKUP>
[4-[2-[4-(2,3-dichlorophenyl)piperazin-1-yl]ethyl]piperazin-1-yl]-(1-methylindazol-3-yl)methanone

> <PUBCHEM_IUPAC_NAME>
[4-[2-[4-(2,3-dichlorophenyl)piperazin-1-yl]ethyl]piperazin-1-yl]-(1-methylindazol-3-yl)methanone

> <PUBCHEM_IUPAC_SYSTEMATIC_NAME>
[4-[2-[4-[2,3-bis(chloranyl)phenyl]piperazin-1-yl]ethyl]piperazin-1-yl]-(1-methylindazol-3-yl)methanone

> <PUBCHEM_IUPAC_TRADITIONAL_NAME>
[4-[2-[4-(2,3-dichlorophenyl)piperazino]ethyl]piperazino]-(1-methylindazol-3-yl)methanone

> <PUBCHEM_IUPAC_INCHI>
InChI=1S/C25H30Cl2N6O/c1-29-21-7-3-2-5-19(21)24(28-29)25(34)33-17-13-31(14-18-33)10-9-30-11-15-32(16-12-30)22-8-4-6-20(26)23(22)27/h2-8H,9-18H2,1H3

> <PUBCHEM_IUPAC_INCHIKEY>
KPALBYLTRZDOII-UHFFFAOYSA-N

> <PUBCHEM_XLOGP3_AA>
4.1

> <PUBCHEM_EXACT_MASS>
500.1858150

> <PUBCHEM_MOLECULAR_FORMULA>
C25H30Cl2N6O

> <PUBCHEM_MOLECULAR_WEIGHT>
501.4

> <PUBCHEM_OPENEYE_CAN_SMILES>
CN1C2=CC=CC=C2C(=N1)C(=O)N3CCN(CC3)CCN4CCN(CC4)C5=C(C(=CC=C5)Cl)Cl

> <PUBCHEM_OPENEYE_ISO_SMILES>
CN1C2=CC=CC=C2C(=N1)C(=O)N3CCN(CC3)CCN4CCN(CC4)C5=C(C(=CC=C5)Cl)Cl

> <PUBCHEM_CACTVS_TPSA>
47.8

> <PUBCHEM_MONOISOTOPIC_WEIGHT>
500.1858150

> <PUBCHEM_TOTAL_CHARGE>
0

> <PUBCHEM_HEAVY_ATOM_COUNT>
34

> <PUBCHEM_ATOM_DEF_STEREO_COUNT>
0

> <PUBCHEM_ATOM_UDEF_STEREO_COUNT>
0

> <PUBCHEM_BOND_DEF_STEREO_COUNT>
0

> <PUBCHEM_BOND_UDEF_STEREO_COUNT>
0

> <PUBCHEM_ISOTOPIC_ATOM_COUNT>
0

> <PUBCHEM_COMPONENT_COUNT>
1

> <PUBCHEM_CACTVS_TAUTO_COUNT>
-1

> <PUBCHEM_COORDINATE_TYPE>
1
5
255

> <PUBCHEM_BONDANNOTATIONS>
20  23  8
20  24  8
22  25  8
23  27  8
24  28  8
25  26  8
25  29  8
26  31  8
27  30  8
28  30  8
29  33  8
31  34  8
33  34  8
8  22  8
8  9  8
9  26  8

$$$$
