145948565
  -OEChem-09292322022D

 67 71  0     1  0  0  0  0  0999 V2000
    6.9768    0.0000    0.0000 F   0  0  0  0  0  0  0  0  0  0  0  0
    5.6107    0.3660    0.0000 F   0  0  0  0  0  0  0  0  0  0  0  0
    5.9768    1.7320    0.0000 F   0  0  0  0  0  0  0  0  0  0  0  0
    1.8692   12.8477    0.0000 O   0  0  0  0  0  0  0  0  0  0  0  0
   12.9038    5.8649    0.0000 O   0  0  0  0  0  0  0  0  0  0  0  0
    8.2088    0.8660    0.0000 O   0  0  0  0  0  0  0  0  0  0  0  0
    7.3428    2.3660    0.0000 O   0  0  0  0  0  0  0  0  0  0  0  0
    5.0410    8.3362    0.0000 N   0  0  3  0  0  0  0  0  0  0  0  0
    7.1881    7.6739    0.0000 N   0  0  3  0  0  0  0  0  0  0  0  0
    0.9484   11.3287    0.0000 N   0  0  0  0  0  0  0  0  0  0  0  0
    8.9202    7.6739    0.0000 N   0  0  0  0  0  0  0  0  0  0  0  0
    8.0541    6.1739    0.0000 N   0  0  0  0  0  0  0  0  0  0  0  0
    9.7862    6.1739    0.0000 N   0  0  0  0  0  0  0  0  0  0  0  0
   10.7324    7.4786    0.0000 N   0  0  0  0  0  0  0  0  0  0  0  0
   10.7324    5.8692    0.0000 N   0  0  0  0  0  0  0  0  0  0  0  0
    8.9202    4.6739    0.0000 N   0  0  0  0  0  0  0  0  0  0  0  0
    5.5410    9.2023    0.0000 C   0  0  0  0  0  0  0  0  0  0  0  0
    5.4063    7.4054    0.0000 C   0  0  0  0  0  0  0  0  0  0  0  0
    6.5298    9.3513    0.0000 C   0  0  0  0  0  0  0  0  0  0  0  0
    6.3619    7.1106    0.0000 C   0  0  0  0  0  0  0  0  0  0  0  0
    4.0438    8.4110    0.0000 C   0  0  0  0  0  0  0  0  0  0  0  0
    7.2628    8.6711    0.0000 C   0  0  0  0  0  0  0  0  0  0  0  0
    3.6099    9.3119    0.0000 C   0  0  0  0  0  0  0  0  0  0  0  0
    2.6127    9.3867    0.0000 C   0  0  0  0  0  0  0  0  0  0  0  0
    2.1788   10.2876    0.0000 C   0  0  0  0  0  0  0  0  0  0  0  0
    8.0541    7.1739    0.0000 C   0  0  0  0  0  0  0  0  0  0  0  0
    2.5534   11.2084    0.0000 C   0  0  0  0  0  0  0  0  0  0  0  0
    1.1816   10.3624    0.0000 C   0  0  0  0  0  0  0  0  0  0  0  0
    2.0494    8.5604    0.0000 C   0  0  0  0  0  0  0  0  0  0  0  0
    1.7945   11.8505    0.0000 C   0  0  0  0  0  0  0  0  0  0  0  0
    0.6183    9.5361    0.0000 C   0  0  0  0  0  0  0  0  0  0  0  0
    1.0522    8.6352    0.0000 C   0  0  0  0  0  0  0  0  0  0  0  0
    9.7862    7.1739    0.0000 C   0  0  0  0  0  0  0  0  0  0  0  0
    8.9202    5.6739    0.0000 C   0  0  0  0  0  0  0  0  0  0  0  0
   11.3160    6.6739    0.0000 C   0  0  0  0  0  0  0  0  0  0  0  0
   12.3160    6.6739    0.0000 C   0  0  0  0  0  0  0  0  0  0  0  0
   12.9038    7.4829    0.0000 C   0  0  0  0  0  0  0  0  0  0  0  0
   13.8549    7.1739    0.0000 C   0  0  0  0  0  0  0  0  0  0  0  0
   13.8549    6.1739    0.0000 C   0  0  0  0  0  0  0  0  0  0  0  0
    6.4768    0.8660    0.0000 C   0  0  0  0  0  0  0  0  0  0  0  0
    7.3428    1.3660    0.0000 C   0  0  0  0  0  0  0  0  0  0  0  0
    5.5873    9.8205    0.0000 H   0  0  0  0  0  0  0  0  0  0  0  0
    4.9485    9.3850    0.0000 H   0  0  0  0  0  0  0  0  0  0  0  0
    4.7932    7.3130    0.0000 H   0  0  0  0  0  0  0  0  0  0  0  0
    5.3600    6.7871    0.0000 H   0  0  0  0  0  0  0  0  0  0  0  0
    7.0421    9.7006    0.0000 H   0  0  0  0  0  0  0  0  0  0  0  0
    6.3033    9.9284    0.0000 H   0  0  0  0  0  0  0  0  0  0  0  0
    6.0519    6.5737    0.0000 H   0  0  0  0  0  0  0  0  0  0  0  0
    6.8164    6.6889    0.0000 H   0  0  0  0  0  0  0  0  0  0  0  0
    3.4469    8.2430    0.0000 H   0  0  0  0  0  0  0  0  0  0  0  0
    4.1055    7.7940    0.0000 H   0  0  0  0  0  0  0  0  0  0  0  0
    7.8553    8.4884    0.0000 H   0  0  0  0  0  0  0  0  0  0  0  0
    7.5728    9.2081    0.0000 H   0  0  0  0  0  0  0  0  0  0  0  0
    4.2067    9.4799    0.0000 H   0  0  0  0  0  0  0  0  0  0  0  0
    3.5482    9.9288    0.0000 H   0  0  0  0  0  0  0  0  0  0  0  0
    3.0999   10.9157    0.0000 H   0  0  0  0  0  0  0  0  0  0  0  0
    2.9019   11.7212    0.0000 H   0  0  0  0  0  0  0  0  0  0  0  0
    2.3184    8.0018    0.0000 H   0  0  0  0  0  0  0  0  0  0  0  0
    0.3751   11.5648    0.0000 H   0  0  0  0  0  0  0  0  0  0  0  0
    0.0000    9.5824    0.0000 H   0  0  0  0  0  0  0  0  0  0  0  0
    0.7029    8.1229    0.0000 H   0  0  0  0  0  0  0  0  0  0  0  0
    8.3832    4.3639    0.0000 H   0  0  0  0  0  0  0  0  0  0  0  0
    9.4571    4.3639    0.0000 H   0  0  0  0  0  0  0  0  0  0  0  0
   12.7122    8.0726    0.0000 H   0  0  0  0  0  0  0  0  0  0  0  0
   14.3565    7.5384    0.0000 H   0  0  0  0  0  0  0  0  0  0  0  0
   14.3565    5.8095    0.0000 H   0  0  0  0  0  0  0  0  0  0  0  0
    8.7457    1.1760    0.0000 H   0  0  0  0  0  0  0  0  0  0  0  0
  1 40  1  0  0  0  0
  2 40  1  0  0  0  0
  3 40  1  0  0  0  0
  4 30  2  0  0  0  0
  5 36  1  0  0  0  0
  5 39  1  0  0  0  0
  6 41  1  0  0  0  0
  6 67  1  0  0  0  0
  7 41  2  0  0  0  0
  8 17  1  0  0  0  0
  8 18  1  0  0  0  0
  8 21  1  0  0  0  0
  9 20  1  0  0  0  0
  9 22  1  0  0  0  0
  9 26  1  0  0  0  0
 10 28  1  0  0  0  0
 10 30  1  0  0  0  0
 10 59  1  0  0  0  0
 11 26  2  0  0  0  0
 11 33  1  0  0  0  0
 12 26  1  0  0  0  0
 12 34  2  0  0  0  0
 13 15  1  0  0  0  0
 13 33  1  0  0  0  0
 13 34  1  0  0  0  0
 14 33  2  0  0  0  0
 14 35  1  0  0  0  0
 15 35  2  0  0  0  0
 16 34  1  0  0  0  0
 16 62  1  0  0  0  0
 16 63  1  0  0  0  0
 17 19  1  0  0  0  0
 17 42  1  0  0  0  0
 17 43  1  0  0  0  0
 18 20  1  0  0  0  0
 18 44  1  0  0  0  0
 18 45  1  0  0  0  0
 19 22  1  0  0  0  0
 19 46  1  0  0  0  0
 19 47  1  0  0  0  0
 20 48  1  0  0  0  0
 20 49  1  0  0  0  0
 21 23  1  0  0  0  0
 21 50  1  0  0  0  0
 21 51  1  0  0  0  0
 22 52  1  0  0  0  0
 22 53  1  0  0  0  0
 23 24  1  0  0  0  0
 23 54  1  0  0  0  0
 23 55  1  0  0  0  0
 24 25  2  0  0  0  0
 24 29  1  0  0  0  0
 25 27  1  0  0  0  0
 25 28  1  0  0  0  0
 27 30  1  0  0  0  0
 27 56  1  0  0  0  0
 27 57  1  0  0  0  0
 28 31  2  0  0  0  0
 29 32  2  0  0  0  0
 29 58  1  0  0  0  0
 31 32  1  0  0  0  0
 31 60  1  0  0  0  0
 32 61  1  0  0  0  0
 35 36  1  0  0  0  0
 36 37  2  0  0  0  0
 37 38  1  0  0  0  0
 37 64  1  0  0  0  0
 38 39  2  0  0  0  0
 38 65  1  0  0  0  0
 39 66  1  0  0  0  0
 40 41  1  0  0  0  0
M  END
> <PUBCHEM_COMPOUND_CID>
145948565

> <PUBCHEM_COMPOUND_CANONICALIZED>
1

> <PUBCHEM_CACTVS_COMPLEXITY>
812

> <PUBCHEM_CACTVS_HBOND_ACCEPTOR>
14

> <PUBCHEM_CACTVS_HBOND_DONOR>
3

> <PUBCHEM_CACTVS_ROTATABLE_BOND>
5

> <PUBCHEM_CACTVS_SUBSKEYS>
AAADceB7+YAAAAAAAAAAAAAAAAAAAWLEgAA8QAAABYAAAFgB/AAAHwAYCAAADAzhmxYx3IfIFkCqAq/y/ASSiAsnIqAdiCGubNiObrLE/buXOSj83BPY6YecmYKOgAAAQAASAAAAAACAACQAAAAAAAAAAA==

> <PUBCHEM_IUPAC_OPENEYE_NAME>
4-[2-[4-[7-amino-2-(2-furyl)-[1,2,4]triazolo[1,5-a][1,3,5]triazin-5-yl]-1,4-diazepan-1-yl]ethyl]indolin-2-one;2,2,2-trifluoroacetic acid

> <PUBCHEM_IUPAC_CAS_NAME>
4-[2-[4-[7-amino-2-(2-furanyl)-[1,2,4]triazolo[1,5-a][1,3,5]triazin-5-yl]-1,4-diazepan-1-yl]ethyl]-1,3-dihydroindol-2-one;2,2,2-trifluoroacetic acid

> <PUBCHEM_IUPAC_NAME_MARKUP>
4-[2-[4-[7-amino-2-(furan-2-yl)-[1,2,4]triazolo[1,5-a][1,3,5]triazin-5-yl]-1,4-diazepan-1-yl]ethyl]-1,3-dihydroindol-2-one;2,2,2-trifluoroacetic acid

> <PUBCHEM_IUPAC_NAME>
4-[2-[4-[7-amino-2-(furan-2-yl)-[1,2,4]triazolo[1,5-a][1,3,5]triazin-5-yl]-1,4-diazepan-1-yl]ethyl]-1,3-dihydroindol-2-one;2,2,2-trifluoroacetic acid

> <PUBCHEM_IUPAC_SYSTEMATIC_NAME>
4-[2-[4-[7-azanyl-2-(furan-2-yl)-[1,2,4]triazolo[1,5-a][1,3,5]triazin-5-yl]-1,4-diazepan-1-yl]ethyl]-1,3-dihydroindol-2-one;2,2,2-tris(fluoranyl)ethanoic acid

> <PUBCHEM_IUPAC_TRADITIONAL_NAME>
4-[2-[4-[7-amino-2-(2-furyl)-[1,2,4]triazolo[1,5-a][1,3,5]triazin-5-yl]-1,4-diazepan-1-yl]ethyl]oxindole;2,2,2-trifluoroacetic acid

> <PUBCHEM_IUPAC_INCHI>
InChI=1S/C23H25N9O2.C2HF3O2/c24-21-27-22(28-23-26-20(29-32(21)23)18-6-2-13-34-18)31-9-3-8-30(11-12-31)10-7-15-4-1-5-17-16(15)14-19(33)25-17;3-2(4,5)1(6)7/h1-2,4-6,13H,3,7-12,14H2,(H,25,33)(H2,24,26,27,28,29);(H,6,7)

> <PUBCHEM_IUPAC_INCHIKEY>
BXIJNKUYMAREGF-UHFFFAOYSA-N

> <PUBCHEM_EXACT_MASS>
573.20598483

> <PUBCHEM_MOLECULAR_FORMULA>
C25H26F3N9O4

> <PUBCHEM_MOLECULAR_WEIGHT>
573.5

> <PUBCHEM_OPENEYE_CAN_SMILES>
C1CN(CCN(C1)C2=NC3=NC(=NN3C(=N2)N)C4=CC=CO4)CCC5=C6CC(=O)NC6=CC=C5.C(=O)(C(F)(F)F)O

> <PUBCHEM_OPENEYE_ISO_SMILES>
C1CN(CCN(C1)C2=NC3=NC(=NN3C(=N2)N)C4=CC=CO4)CCC5=C6CC(=O)NC6=CC=C5.C(=O)(C(F)(F)F)O

> <PUBCHEM_CACTVS_TPSA>
168

> <PUBCHEM_MONOISOTOPIC_WEIGHT>
573.20598483

> <PUBCHEM_TOTAL_CHARGE>
0

> <PUBCHEM_HEAVY_ATOM_COUNT>
41

> <PUBCHEM_ATOM_DEF_STEREO_COUNT>
0

> <PUBCHEM_ATOM_UDEF_STEREO_COUNT>
0

> <PUBCHEM_BOND_DEF_STEREO_COUNT>
0

> <PUBCHEM_BOND_UDEF_STEREO_COUNT>
0

> <PUBCHEM_ISOTOPIC_ATOM_COUNT>
0

> <PUBCHEM_COMPONENT_COUNT>
2

> <PUBCHEM_CACTVS_TAUTO_COUNT>
-1

> <PUBCHEM_COORDINATE_TYPE>
1
5
255

> <PUBCHEM_BONDANNOTATIONS>
11  26  8
11  33  8
12  26  8
12  34  8
13  15  8
13  33  8
13  34  8
14  33  8
14  35  8
15  35  8
24  25  8
24  29  8
25  28  8
28  31  8
29  32  8
31  32  8
36  37  8
37  38  8
38  39  8
5  36  8
5  39  8

$$$$
