137649540
  -OEChem-09292322472D

 60 64  0     0  0  0  0  0  0999 V2000
    2.8090   -1.8790    0.0000 S   0  0  0  0  0  0  0  0  0  0  0  0
    6.2731    4.9494    0.0000 O   0  0  0  0  0  0  0  0  0  0  0  0
    4.5411    1.1210    0.0000 N   0  0  0  0  0  0  0  0  0  0  0  0
    4.5411    3.9494    0.0000 N   0  0  0  0  0  0  0  0  0  0  0  0
    3.6180   -3.4668    0.0000 N   0  0  0  0  0  0  0  0  0  0  0  0
    2.0000   -3.4668    0.0000 N   0  0  0  0  0  0  0  0  0  0  0  0
    2.3090   -4.4178    0.0000 N   0  0  0  0  0  0  0  0  0  0  0  0
    4.5411    2.5352    0.0000 C   0  0  0  0  0  0  0  0  0  0  0  0
    3.8340    1.8281    0.0000 C   0  0  0  0  0  0  0  0  0  0  0  0
    5.2482    1.8281    0.0000 C   0  0  0  0  0  0  0  0  0  0  0  0
    5.2482    3.2423    0.0000 C   0  0  0  0  0  0  0  0  0  0  0  0
    3.8340    3.2423    0.0000 C   0  0  0  0  0  0  0  0  0  0  0  0
    4.5411    0.1210    0.0000 C   0  0  0  0  0  0  0  0  0  0  0  0
    4.5411    4.9494    0.0000 C   0  0  0  0  0  0  0  0  0  0  0  0
    3.6750   -0.3790    0.0000 C   0  0  0  0  0  0  0  0  0  0  0  0
    5.4071    5.4494    0.0000 C   0  0  0  0  0  0  0  0  0  0  0  0
    3.6750    5.4494    0.0000 C   0  0  0  0  0  0  0  0  0  0  0  0
    3.6750   -1.3790    0.0000 C   0  0  0  0  0  0  0  0  0  0  0  0
    5.4071    6.4494    0.0000 C   0  0  0  0  0  0  0  0  0  0  0  0
    3.6750    6.4494    0.0000 C   0  0  0  0  0  0  0  0  0  0  0  0
    4.5411    6.9494    0.0000 C   0  0  0  0  0  0  0  0  0  0  0  0
    7.1391    5.4494    0.0000 C   0  0  0  0  0  0  0  0  0  0  0  0
    2.8090   -2.8790    0.0000 C   0  0  0  0  0  0  0  0  0  0  0  0
    3.3090   -4.4178    0.0000 C   0  0  0  0  0  0  0  0  0  0  0  0
    4.5691   -3.1578    0.0000 C   0  0  0  0  0  0  0  0  0  0  0  0
    3.8968   -5.2269    0.0000 C   0  0  0  0  0  0  0  0  0  0  0  0
    4.8913   -5.1223    0.0000 C   0  0  0  0  0  0  0  0  0  0  0  0
    3.4901   -6.1404    0.0000 C   0  0  0  0  0  0  0  0  0  0  0  0
    5.4791   -5.9314    0.0000 C   0  0  0  0  0  0  0  0  0  0  0  0
    4.0778   -6.9494    0.0000 C   0  0  0  0  0  0  0  0  0  0  0  0
    5.0724   -6.8449    0.0000 C   0  0  0  0  0  0  0  0  0  0  0  0
    3.3956    2.2665    0.0000 H   0  0  0  0  0  0  0  0  0  0  0  0
    3.3956    1.3897    0.0000 H   0  0  0  0  0  0  0  0  0  0  0  0
    5.6866    1.3897    0.0000 H   0  0  0  0  0  0  0  0  0  0  0  0
    5.6866    2.2665    0.0000 H   0  0  0  0  0  0  0  0  0  0  0  0
    5.6866    2.8039    0.0000 H   0  0  0  0  0  0  0  0  0  0  0  0
    5.6866    3.6807    0.0000 H   0  0  0  0  0  0  0  0  0  0  0  0
    3.3956    3.6807    0.0000 H   0  0  0  0  0  0  0  0  0  0  0  0
    3.3956    2.8039    0.0000 H   0  0  0  0  0  0  0  0  0  0  0  0
    4.7531   -0.4616    0.0000 H   0  0  0  0  0  0  0  0  0  0  0  0
    5.1516    0.2287    0.0000 H   0  0  0  0  0  0  0  0  0  0  0  0
    3.4630    0.2036    0.0000 H   0  0  0  0  0  0  0  0  0  0  0  0
    3.0645   -0.4867    0.0000 H   0  0  0  0  0  0  0  0  0  0  0  0
    3.1381    5.1394    0.0000 H   0  0  0  0  0  0  0  0  0  0  0  0
    3.8871   -1.9616    0.0000 H   0  0  0  0  0  0  0  0  0  0  0  0
    4.2856   -1.2713    0.0000 H   0  0  0  0  0  0  0  0  0  0  0  0
    5.9440    6.7594    0.0000 H   0  0  0  0  0  0  0  0  0  0  0  0
    3.1381    6.7594    0.0000 H   0  0  0  0  0  0  0  0  0  0  0  0
    4.5411    7.5694    0.0000 H   0  0  0  0  0  0  0  0  0  0  0  0
    7.4491    4.9125    0.0000 H   0  0  0  0  0  0  0  0  0  0  0  0
    7.6761    5.7594    0.0000 H   0  0  0  0  0  0  0  0  0  0  0  0
    6.8291    5.9864    0.0000 H   0  0  0  0  0  0  0  0  0  0  0  0
    4.7607   -3.7474    0.0000 H   0  0  0  0  0  0  0  0  0  0  0  0
    5.1588   -2.9662    0.0000 H   0  0  0  0  0  0  0  0  0  0  0  0
    4.3775   -2.5681    0.0000 H   0  0  0  0  0  0  0  0  0  0  0  0
    5.1435   -4.5559    0.0000 H   0  0  0  0  0  0  0  0  0  0  0  0
    2.8735   -6.2052    0.0000 H   0  0  0  0  0  0  0  0  0  0  0  0
    6.0957   -5.8665    0.0000 H   0  0  0  0  0  0  0  0  0  0  0  0
    3.8257   -7.5158    0.0000 H   0  0  0  0  0  0  0  0  0  0  0  0
    5.4368   -7.3465    0.0000 H   0  0  0  0  0  0  0  0  0  0  0  0
  1 18  1  0  0  0  0
  1 23  1  0  0  0  0
  2 16  1  0  0  0  0
  2 22  1  0  0  0  0
  3  9  1  0  0  0  0
  3 10  1  0  0  0  0
  3 13  1  0  0  0  0
  4 11  1  0  0  0  0
  4 12  1  0  0  0  0
  4 14  1  0  0  0  0
  5 23  1  0  0  0  0
  5 24  1  0  0  0  0
  5 25  1  0  0  0  0
  6  7  1  0  0  0  0
  6 23  2  0  0  0  0
  7 24  2  0  0  0  0
  8  9  1  0  0  0  0
  8 10  1  0  0  0  0
  8 11  1  0  0  0  0
  8 12  1  0  0  0  0
  9 32  1  0  0  0  0
  9 33  1  0  0  0  0
 10 34  1  0  0  0  0
 10 35  1  0  0  0  0
 11 36  1  0  0  0  0
 11 37  1  0  0  0  0
 12 38  1  0  0  0  0
 12 39  1  0  0  0  0
 13 15  1  0  0  0  0
 13 40  1  0  0  0  0
 13 41  1  0  0  0  0
 14 16  1  0  0  0  0
 14 17  2  0  0  0  0
 15 18  1  0  0  0  0
 15 42  1  0  0  0  0
 15 43  1  0  0  0  0
 16 19  2  0  0  0  0
 17 20  1  0  0  0  0
 17 44  1  0  0  0  0
 18 45  1  0  0  0  0
 18 46  1  0  0  0  0
 19 21  1  0  0  0  0
 19 47  1  0  0  0  0
 20 21  2  0  0  0  0
 20 48  1  0  0  0  0
 21 49  1  0  0  0  0
 22 50  1  0  0  0  0
 22 51  1  0  0  0  0
 22 52  1  0  0  0  0
 24 26  1  0  0  0  0
 25 53  1  0  0  0  0
 25 54  1  0  0  0  0
 25 55  1  0  0  0  0
 26 27  2  0  0  0  0
 26 28  1  0  0  0  0
 27 29  1  0  0  0  0
 27 56  1  0  0  0  0
 28 30  2  0  0  0  0
 28 57  1  0  0  0  0
 29 31  2  0  0  0  0
 29 58  1  0  0  0  0
 30 31  1  0  0  0  0
 30 59  1  0  0  0  0
 31 60  1  0  0  0  0
M  END
> <PUBCHEM_COMPOUND_CID>
137649540

> <PUBCHEM_COMPOUND_CANONICALIZED>
1

> <PUBCHEM_CACTVS_COMPLEXITY>
574

> <PUBCHEM_CACTVS_HBOND_ACCEPTOR>
6

> <PUBCHEM_CACTVS_HBOND_DONOR>
0

> <PUBCHEM_CACTVS_ROTATABLE_BOND>
8

> <PUBCHEM_CACTVS_SUBSKEYS>
AAADceB7oABAAAAAAAAAAAAAAABYsWAAAAAwYAAAAAAAAAAB0AAAHgQIAAAADgzF2waz1ocMFAiiAiZiZACS2AthIrAdyCAvbJiOLqLk+ZuFMChkyBPY6AeQwAAOAAAAAAAAEAAAAAAAAAAgAAAAAAAAAA==

> <PUBCHEM_IUPAC_OPENEYE_NAME>
2-(2-methoxyphenyl)-6-[3-[(4-methyl-5-phenyl-1,2,4-triazol-3-yl)sulfanyl]propyl]-2,6-diazaspiro[3.3]heptane

> <PUBCHEM_IUPAC_CAS_NAME>
2-(2-methoxyphenyl)-6-[3-[(4-methyl-5-phenyl-1,2,4-triazol-3-yl)thio]propyl]-2,6-diazaspiro[3.3]heptane

> <PUBCHEM_IUPAC_NAME_MARKUP>
2-(2-methoxyphenyl)-6-[3-[(4-methyl-5-phenyl-1,2,4-triazol-3-yl)sulfanyl]propyl]-2,6-diazaspiro[3.3]heptane

> <PUBCHEM_IUPAC_NAME>
2-(2-methoxyphenyl)-6-[3-[(4-methyl-5-phenyl-1,2,4-triazol-3-yl)sulfanyl]propyl]-2,6-diazaspiro[3.3]heptane

> <PUBCHEM_IUPAC_SYSTEMATIC_NAME>
2-(2-methoxyphenyl)-6-[3-[(4-methyl-5-phenyl-1,2,4-triazol-3-yl)sulfanyl]propyl]-2,6-diazaspiro[3.3]heptane

> <PUBCHEM_IUPAC_TRADITIONAL_NAME>
2-(2-methoxyphenyl)-6-[3-[(4-methyl-5-phenyl-1,2,4-triazol-3-yl)thio]propyl]-2,6-diazaspiro[3.3]heptane

> <PUBCHEM_IUPAC_INCHI>
InChI=1S/C24H29N5OS/c1-27-22(19-9-4-3-5-10-19)25-26-23(27)31-14-8-13-28-15-24(16-28)17-29(18-24)20-11-6-7-12-21(20)30-2/h3-7,9-12H,8,13-18H2,1-2H3

> <PUBCHEM_IUPAC_INCHIKEY>
HHNGFUDNXPRRFY-UHFFFAOYSA-N

> <PUBCHEM_XLOGP3_AA>
3.8

> <PUBCHEM_EXACT_MASS>
435.20928174

> <PUBCHEM_MOLECULAR_FORMULA>
C24H29N5OS

> <PUBCHEM_MOLECULAR_WEIGHT>
435.6

> <PUBCHEM_OPENEYE_CAN_SMILES>
CN1C(=NN=C1SCCCN2CC3(C2)CN(C3)C4=CC=CC=C4OC)C5=CC=CC=C5

> <PUBCHEM_OPENEYE_ISO_SMILES>
CN1C(=NN=C1SCCCN2CC3(C2)CN(C3)C4=CC=CC=C4OC)C5=CC=CC=C5

> <PUBCHEM_CACTVS_TPSA>
71.7

> <PUBCHEM_MONOISOTOPIC_WEIGHT>
435.20928174

> <PUBCHEM_TOTAL_CHARGE>
0

> <PUBCHEM_HEAVY_ATOM_COUNT>
31

> <PUBCHEM_ATOM_DEF_STEREO_COUNT>
0

> <PUBCHEM_ATOM_UDEF_STEREO_COUNT>
0

> <PUBCHEM_BOND_DEF_STEREO_COUNT>
0

> <PUBCHEM_BOND_UDEF_STEREO_COUNT>
0

> <PUBCHEM_ISOTOPIC_ATOM_COUNT>
0

> <PUBCHEM_COMPONENT_COUNT>
1

> <PUBCHEM_CACTVS_TAUTO_COUNT>
-1

> <PUBCHEM_COORDINATE_TYPE>
1
5
255

> <PUBCHEM_BONDANNOTATIONS>
14  16  8
14  17  8
16  19  8
17  20  8
19  21  8
20  21  8
26  27  8
26  28  8
27  29  8
28  30  8
29  31  8
30  31  8
5  23  8
5  24  8
6  23  8
6  7  8
7  24  8

$$$$
