49780809
  -OEChem-09292322302D

 59 63  0     1  0  0  0  0  0999 V2000
    7.1100   -4.2283    0.0000 S   0  0  0  0  0  0  0  0  0  0  0  0
   10.9444    5.3497    0.0000 F   0  0  0  0  0  0  0  0  0  0  0  0
   11.9444    4.3497    0.0000 F   0  0  0  0  0  0  0  0  0  0  0  0
    9.9444    4.3497    0.0000 F   0  0  0  0  0  0  0  0  0  0  0  0
    2.7431   -4.3603    0.0000 O   0  0  0  0  0  0  0  0  0  0  0  0
    9.6844   -1.9103    0.0000 N   0  0  0  0  0  0  0  0  0  0  0  0
    5.3887   -3.7671    0.0000 N   0  0  0  0  0  0  0  0  0  0  0  0
    5.7252   -5.3497    0.0000 N   0  0  0  0  0  0  0  0  0  0  0  0
    4.7306   -5.2452    0.0000 N   0  0  0  0  0  0  0  0  0  0  0  0
    2.4067   -2.7776    0.0000 N   0  0  0  0  0  0  0  0  0  0  0  0
   10.9444    0.3497    0.0000 C   0  0  1  0  0  0  0  0  0  0  0  0
   10.9444   -0.6503    0.0000 C   0  0  3  0  0  0  0  0  0  0  0  0
   11.8110   -0.1503    0.0000 C   0  0  0  0  0  0  0  0  0  0  0  0
    9.9934   -0.9593    0.0000 C   0  0  1  0  0  0  0  0  0  0  0  0
    9.9934    0.6588    0.0000 C   0  0  0  0  0  0  0  0  0  0  0  0
    9.4056   -0.1503    0.0000 C   0  0  0  0  0  0  0  0  0  0  0  0
   10.9444    1.3497    0.0000 C   0  0  0  0  0  0  0  0  0  0  0  0
   11.8105    1.8497    0.0000 C   0  0  0  0  0  0  0  0  0  0  0  0
   10.0784    1.8497    0.0000 C   0  0  0  0  0  0  0  0  0  0  0  0
    8.7062   -2.1183    0.0000 C   0  0  0  0  0  0  0  0  0  0  0  0
   11.8105    2.8497    0.0000 C   0  0  0  0  0  0  0  0  0  0  0  0
   10.0784    2.8497    0.0000 C   0  0  0  0  0  0  0  0  0  0  0  0
    8.3972   -3.0693    0.0000 C   0  0  0  0  0  0  0  0  0  0  0  0
   10.9444    3.3497    0.0000 C   0  0  0  0  0  0  0  0  0  0  0  0
    7.4190   -3.2772    0.0000 C   0  0  0  0  0  0  0  0  0  0  0  0
   10.9444    4.3497    0.0000 C   0  0  0  0  0  0  0  0  0  0  0  0
    6.1319   -4.4362    0.0000 C   0  0  0  0  0  0  0  0  0  0  0  0
    4.5227   -4.2671    0.0000 C   0  0  0  0  0  0  0  0  0  0  0  0
    5.4933   -2.7725    0.0000 C   0  0  0  0  0  0  0  0  0  0  0  0
    3.6092   -3.8603    0.0000 C   0  0  0  0  0  0  0  0  0  0  0  0
    3.4013   -2.8822    0.0000 C   0  0  0  0  0  0  0  0  0  0  0  0
    4.0704   -2.1390    0.0000 C   0  0  0  0  0  0  0  0  0  0  0  0
    2.0000   -3.6912    0.0000 C   0  0  0  0  0  0  0  0  0  0  0  0
   11.1965   -1.2167    0.0000 H   0  0  0  0  0  0  0  0  0  0  0  0
   12.2095   -0.6252    0.0000 H   0  0  0  0  0  0  0  0  0  0  0  0
   12.2095    0.3247    0.0000 H   0  0  0  0  0  0  0  0  0  0  0  0
    9.3810   -1.0563    0.0000 H   0  0  0  0  0  0  0  0  0  0  0  0
   10.2456    1.2252    0.0000 H   0  0  0  0  0  0  0  0  0  0  0  0
    9.4564    0.9688    0.0000 H   0  0  0  0  0  0  0  0  0  0  0  0
    8.9448    0.2646    0.0000 H   0  0  0  0  0  0  0  0  0  0  0  0
    8.9448   -0.5651    0.0000 H   0  0  0  0  0  0  0  0  0  0  0  0
   10.0992   -2.3711    0.0000 H   0  0  0  0  0  0  0  0  0  0  0  0
   12.3474    1.5397    0.0000 H   0  0  0  0  0  0  0  0  0  0  0  0
    9.5415    1.5397    0.0000 H   0  0  0  0  0  0  0  0  0  0  0  0
    8.6846   -1.4986    0.0000 H   0  0  0  0  0  0  0  0  0  0  0  0
    8.0922   -2.0320    0.0000 H   0  0  0  0  0  0  0  0  0  0  0  0
   12.3474    3.1597    0.0000 H   0  0  0  0  0  0  0  0  0  0  0  0
    9.5415    3.1597    0.0000 H   0  0  0  0  0  0  0  0  0  0  0  0
    8.4188   -3.6889    0.0000 H   0  0  0  0  0  0  0  0  0  0  0  0
    9.0112   -3.1556    0.0000 H   0  0  0  0  0  0  0  0  0  0  0  0
    7.3974   -2.6576    0.0000 H   0  0  0  0  0  0  0  0  0  0  0  0
    6.8051   -3.1909    0.0000 H   0  0  0  0  0  0  0  0  0  0  0  0
    6.1099   -2.8373    0.0000 H   0  0  0  0  0  0  0  0  0  0  0  0
    5.5581   -2.1559    0.0000 H   0  0  0  0  0  0  0  0  0  0  0  0
    4.8767   -2.7077    0.0000 H   0  0  0  0  0  0  0  0  0  0  0  0
    4.5311   -2.5539    0.0000 H   0  0  0  0  0  0  0  0  0  0  0  0
    4.4852   -1.6783    0.0000 H   0  0  0  0  0  0  0  0  0  0  0  0
    3.6096   -1.7242    0.0000 H   0  0  0  0  0  0  0  0  0  0  0  0
    1.3936   -3.8201    0.0000 H   0  0  0  0  0  0  0  0  0  0  0  0
  1 25  1  0  0  0  0
  1 27  1  0  0  0  0
  2 26  1  0  0  0  0
  3 26  1  0  0  0  0
  4 26  1  0  0  0  0
  5 30  1  0  0  0  0
  5 33  1  0  0  0  0
 14  6  1  6  0  0  0
  6 20  1  0  0  0  0
  6 42  1  0  0  0  0
  7 27  1  0  0  0  0
  7 28  1  0  0  0  0
  7 29  1  0  0  0  0
  8  9  1  0  0  0  0
  8 27  2  0  0  0  0
  9 28  2  0  0  0  0
 10 31  1  0  0  0  0
 10 33  2  0  0  0  0
 11 12  1  0  0  0  0
 11 13  1  0  0  0  0
 11 15  1  0  0  0  0
 11 17  1  1  0  0  0
 12 13  1  0  0  0  0
 12 14  1  0  0  0  0
 12 34  1  0  0  0  0
 13 35  1  0  0  0  0
 13 36  1  0  0  0  0
 14 16  1  0  0  0  0
 14 37  1  0  0  0  0
 15 16  1  0  0  0  0
 15 38  1  0  0  0  0
 15 39  1  0  0  0  0
 16 40  1  0  0  0  0
 16 41  1  0  0  0  0
 17 18  2  0  0  0  0
 17 19  1  0  0  0  0
 18 21  1  0  0  0  0
 18 43  1  0  0  0  0
 19 22  2  0  0  0  0
 19 44  1  0  0  0  0
 20 23  1  0  0  0  0
 20 45  1  0  0  0  0
 20 46  1  0  0  0  0
 21 24  2  0  0  0  0
 21 47  1  0  0  0  0
 22 24  1  0  0  0  0
 22 48  1  0  0  0  0
 23 25  1  0  0  0  0
 23 49  1  0  0  0  0
 23 50  1  0  0  0  0
 24 26  1  0  0  0  0
 25 51  1  0  0  0  0
 25 52  1  0  0  0  0
 28 30  1  0  0  0  0
 29 53  1  0  0  0  0
 29 54  1  0  0  0  0
 29 55  1  0  0  0  0
 30 31  2  0  0  0  0
 31 32  1  0  0  0  0
 32 56  1  0  0  0  0
 32 57  1  0  0  0  0
 32 58  1  0  0  0  0
 33 59  1  0  0  0  0
M  END
> <PUBCHEM_COMPOUND_CID>
49780809

> <PUBCHEM_COMPOUND_CANONICALIZED>
1

> <PUBCHEM_CACTVS_COMPLEXITY>
679

> <PUBCHEM_CACTVS_HBOND_ACCEPTOR>
9

> <PUBCHEM_CACTVS_HBOND_DONOR>
1

> <PUBCHEM_CACTVS_ROTATABLE_BOND>
8

> <PUBCHEM_CACTVS_SUBSKEYS>
AAADceB7oYBAAAAAAAAAAAAAGAAAAeLEAAAwYAAAAAAAAAAB8AAAHwQYAAAADyzF3xa3lJfMFEiqA6Zz9ASS2Ct7YLAd2KG9RJiOKCLk2TCNIChgnALYiAcQgMAPwAAAAAAAAACQAAAAAAAAACAACQAAAA==

> <PUBCHEM_IUPAC_OPENEYE_NAME>
(2R,5S)-N-[3-[[4-methyl-5-(4-methyloxazol-5-yl)-1,2,4-triazol-3-yl]sulfanyl]propyl]-5-[4-(trifluoromethyl)phenyl]bicyclo[3.1.0]hexan-2-amine

> <PUBCHEM_IUPAC_CAS_NAME>
(2R,5S)-N-[3-[[4-methyl-5-(4-methyl-5-oxazolyl)-1,2,4-triazol-3-yl]thio]propyl]-5-[4-(trifluoromethyl)phenyl]-2-bicyclo[3.1.0]hexanamine

> <PUBCHEM_IUPAC_NAME_MARKUP>
(2<I>R</I>,5<I>S</I>)-<I>N</I>-[3-[[4-methyl-5-(4-methyl-1,3-oxazol-5-yl)-1,2,4-triazol-3-yl]sulfanyl]propyl]-5-[4-(trifluoromethyl)phenyl]bicyclo[3.1.0]hexan-2-amine

> <PUBCHEM_IUPAC_NAME>
(2R,5S)-N-[3-[[4-methyl-5-(4-methyl-1,3-oxazol-5-yl)-1,2,4-triazol-3-yl]sulfanyl]propyl]-5-[4-(trifluoromethyl)phenyl]bicyclo[3.1.0]hexan-2-amine

> <PUBCHEM_IUPAC_SYSTEMATIC_NAME>
(2R,5S)-N-[3-[[4-methyl-5-(4-methyl-1,3-oxazol-5-yl)-1,2,4-triazol-3-yl]sulfanyl]propyl]-5-[4-(trifluoromethyl)phenyl]bicyclo[3.1.0]hexan-2-amine

> <PUBCHEM_IUPAC_TRADITIONAL_NAME>
3-[[4-methyl-5-(4-methyloxazol-5-yl)-1,2,4-triazol-3-yl]thio]propyl-[(2R,5S)-5-[4-(trifluoromethyl)phenyl]-2-bicyclo[3.1.0]hexanyl]amine

> <PUBCHEM_IUPAC_INCHI>
InChI=1S/C23H26F3N5OS/c1-14-19(32-13-28-14)20-29-30-21(31(20)2)33-11-3-10-27-18-8-9-22(12-17(18)22)15-4-6-16(7-5-15)23(24,25)26/h4-7,13,17-18,27H,3,8-12H2,1-2H3/t17?,18-,22-/m1/s1

> <PUBCHEM_IUPAC_INCHIKEY>
VTGDLGOSPAKXEA-WMISUKIASA-N

> <PUBCHEM_XLOGP3_AA>
4.3

> <PUBCHEM_EXACT_MASS>
477.18101613

> <PUBCHEM_MOLECULAR_FORMULA>
C23H26F3N5OS

> <PUBCHEM_MOLECULAR_WEIGHT>
477.5

> <PUBCHEM_OPENEYE_CAN_SMILES>
CC1=C(OC=N1)C2=NN=C(N2C)SCCCNC3CCC4(C3C4)C5=CC=C(C=C5)C(F)(F)F

> <PUBCHEM_OPENEYE_ISO_SMILES>
CC1=C(OC=N1)C2=NN=C(N2C)SCCCN[C@@H]3CC[C@]4(C3C4)C5=CC=C(C=C5)C(F)(F)F

> <PUBCHEM_CACTVS_TPSA>
94.1

> <PUBCHEM_MONOISOTOPIC_WEIGHT>
477.18101613

> <PUBCHEM_TOTAL_CHARGE>
0

> <PUBCHEM_HEAVY_ATOM_COUNT>
33

> <PUBCHEM_ATOM_DEF_STEREO_COUNT>
2

> <PUBCHEM_ATOM_UDEF_STEREO_COUNT>
1

> <PUBCHEM_BOND_DEF_STEREO_COUNT>
0

> <PUBCHEM_BOND_UDEF_STEREO_COUNT>
0

> <PUBCHEM_ISOTOPIC_ATOM_COUNT>
0

> <PUBCHEM_COMPONENT_COUNT>
1

> <PUBCHEM_CACTVS_TAUTO_COUNT>
-1

> <PUBCHEM_COORDINATE_TYPE>
1
5
255

> <PUBCHEM_BONDANNOTATIONS>
10  31  8
10  33  8
11  17  5
12  13  3
17  18  8
17  19  8
18  21  8
19  22  8
21  24  8
22  24  8
30  31  8
5  30  8
5  33  8
14  6  6
7  27  8
7  28  8
8  27  8
8  9  8
9  28  8

$$$$
