56598071
  -OEChem-09292321592D

 51 54  0     1  0  0  0  0  0999 V2000
    4.9916    1.8389    0.0000 Cl  0  0  0  0  0  0  0  0  0  0  0  0
    3.8650    3.4914    0.0000 Cl  0  0  0  0  0  0  0  0  0  0  0  0
   12.7794   -3.2961    0.0000 S   0  0  0  0  0  0  0  0  0  0  0  0
    9.2351   -1.4914    0.0000 O   0  0  0  0  0  0  0  0  0  0  0  0
    5.7710   -1.4914    0.0000 N   0  0  3  0  0  0  0  0  0  0  0  0
    4.1238    0.0370    0.0000 N   0  0  3  0  0  0  0  0  0  0  0  0
   12.7794   -1.6866    0.0000 N   0  0  0  0  0  0  0  0  0  0  0  0
    4.9448   -2.0547    0.0000 C   0  0  0  0  0  0  0  0  0  0  0  0
    5.8457   -0.4942    0.0000 C   0  0  0  0  0  0  0  0  0  0  0  0
    3.9892   -1.7599    0.0000 C   0  0  0  0  0  0  0  0  0  0  0  0
    5.1127    0.1860    0.0000 C   0  0  0  0  0  0  0  0  0  0  0  0
    3.6238   -0.8291    0.0000 C   0  0  0  0  0  0  0  0  0  0  0  0
    6.6370   -1.9914    0.0000 C   0  0  0  0  0  0  0  0  0  0  0  0
    7.5030   -1.4914    0.0000 C   0  0  0  0  0  0  0  0  0  0  0  0
    3.5605    0.8632    0.0000 C   0  0  0  0  0  0  0  0  0  0  0  0
    8.3691   -1.9914    0.0000 C   0  0  0  0  0  0  0  0  0  0  0  0
    3.9944    1.7642    0.0000 C   0  0  0  0  0  0  0  0  0  0  0  0
    2.5633    0.7885    0.0000 C   0  0  0  0  0  0  0  0  0  0  0  0
    3.4311    2.5904    0.0000 C   0  0  0  0  0  0  0  0  0  0  0  0
    2.0000    1.6147    0.0000 C   0  0  0  0  0  0  0  0  0  0  0  0
    2.4339    2.5157    0.0000 C   0  0  0  0  0  0  0  0  0  0  0  0
   10.1011   -1.9914    0.0000 C   0  0  0  0  0  0  0  0  0  0  0  0
   10.9671   -1.4914    0.0000 C   0  0  0  0  0  0  0  0  0  0  0  0
   10.1011   -2.9914    0.0000 C   0  0  0  0  0  0  0  0  0  0  0  0
   11.8332   -1.9914    0.0000 C   0  0  0  0  0  0  0  0  0  0  0  0
   11.8332   -2.9914    0.0000 C   0  0  0  0  0  0  0  0  0  0  0  0
   10.9671   -3.4914    0.0000 C   0  0  0  0  0  0  0  0  0  0  0  0
   13.3630   -2.4914    0.0000 C   0  0  0  0  0  0  0  0  0  0  0  0
    4.6348   -2.5916    0.0000 H   0  0  0  0  0  0  0  0  0  0  0  0
    5.3992   -2.4764    0.0000 H   0  0  0  0  0  0  0  0  0  0  0  0
    6.4382   -0.6769    0.0000 H   0  0  0  0  0  0  0  0  0  0  0  0
    6.1557    0.0428    0.0000 H   0  0  0  0  0  0  0  0  0  0  0  0
    3.3761   -1.8524    0.0000 H   0  0  0  0  0  0  0  0  0  0  0  0
    3.9428   -2.3782    0.0000 H   0  0  0  0  0  0  0  0  0  0  0  0
    5.6249    0.5353    0.0000 H   0  0  0  0  0  0  0  0  0  0  0  0
    4.8862    0.7631    0.0000 H   0  0  0  0  0  0  0  0  0  0  0  0
    3.1694   -0.4074    0.0000 H   0  0  0  0  0  0  0  0  0  0  0  0
    3.1116   -1.1783    0.0000 H   0  0  0  0  0  0  0  0  0  0  0  0
    6.2385   -2.4663    0.0000 H   0  0  0  0  0  0  0  0  0  0  0  0
    7.0356   -2.4663    0.0000 H   0  0  0  0  0  0  0  0  0  0  0  0
    7.9016   -1.0164    0.0000 H   0  0  0  0  0  0  0  0  0  0  0  0
    7.1045   -1.0164    0.0000 H   0  0  0  0  0  0  0  0  0  0  0  0
    7.9705   -2.4663    0.0000 H   0  0  0  0  0  0  0  0  0  0  0  0
    8.7676   -2.4663    0.0000 H   0  0  0  0  0  0  0  0  0  0  0  0
    2.2943    0.2299    0.0000 H   0  0  0  0  0  0  0  0  0  0  0  0
    1.3817    1.5684    0.0000 H   0  0  0  0  0  0  0  0  0  0  0  0
    2.0846    3.0279    0.0000 H   0  0  0  0  0  0  0  0  0  0  0  0
   10.9671   -0.8714    0.0000 H   0  0  0  0  0  0  0  0  0  0  0  0
    9.5642   -3.3014    0.0000 H   0  0  0  0  0  0  0  0  0  0  0  0
   10.9671   -4.1114    0.0000 H   0  0  0  0  0  0  0  0  0  0  0  0
   13.9830   -2.4914    0.0000 H   0  0  0  0  0  0  0  0  0  0  0  0
  1 17  1  0  0  0  0
  2 19  1  0  0  0  0
  3 26  1  0  0  0  0
  3 28  1  0  0  0  0
  4 16  1  0  0  0  0
  4 22  1  0  0  0  0
  5  8  1  0  0  0  0
  5  9  1  0  0  0  0
  5 13  1  0  0  0  0
  6 11  1  0  0  0  0
  6 12  1  0  0  0  0
  6 15  1  0  0  0  0
  7 25  1  0  0  0  0
  7 28  2  0  0  0  0
  8 10  1  0  0  0  0
  8 29  1  0  0  0  0
  8 30  1  0  0  0  0
  9 11  1  0  0  0  0
  9 31  1  0  0  0  0
  9 32  1  0  0  0  0
 10 12  1  0  0  0  0
 10 33  1  0  0  0  0
 10 34  1  0  0  0  0
 11 35  1  0  0  0  0
 11 36  1  0  0  0  0
 12 37  1  0  0  0  0
 12 38  1  0  0  0  0
 13 14  1  0  0  0  0
 13 39  1  0  0  0  0
 13 40  1  0  0  0  0
 14 16  1  0  0  0  0
 14 41  1  0  0  0  0
 14 42  1  0  0  0  0
 15 17  2  0  0  0  0
 15 18  1  0  0  0  0
 16 43  1  0  0  0  0
 16 44  1  0  0  0  0
 17 19  1  0  0  0  0
 18 20  2  0  0  0  0
 18 45  1  0  0  0  0
 19 21  2  0  0  0  0
 20 21  1  0  0  0  0
 20 46  1  0  0  0  0
 21 47  1  0  0  0  0
 22 23  2  0  0  0  0
 22 24  1  0  0  0  0
 23 25  1  0  0  0  0
 23 48  1  0  0  0  0
 24 27  2  0  0  0  0
 24 49  1  0  0  0  0
 25 26  2  0  0  0  0
 26 27  1  0  0  0  0
 27 50  1  0  0  0  0
 28 51  1  0  0  0  0
M  END
> <PUBCHEM_COMPOUND_CID>
56598071

> <PUBCHEM_COMPOUND_CANONICALIZED>
1

> <PUBCHEM_CACTVS_COMPLEXITY>
489

> <PUBCHEM_CACTVS_HBOND_ACCEPTOR>
5

> <PUBCHEM_CACTVS_HBOND_DONOR>
0

> <PUBCHEM_CACTVS_ROTATABLE_BOND>
6

> <PUBCHEM_CACTVS_SUBSKEYS>
AAADceB7IABGAAAAAAAAAAAAAAAAAWAAAAAwYAAABYAAAFgB9AAAHgYAAAAACA7h1ia0x7MIFAikASRjRACD+KBxLzhI2nw+bpgMZqLl85vWOCjmwBnI6AeQUAMAAIAAAgIAARQBAAAEBAACKAAAAAAAAA==

> <PUBCHEM_IUPAC_OPENEYE_NAME>
5-[3-[4-(2,3-dichlorophenyl)-1,4-diazepan-1-yl]propoxy]-1,3-benzothiazole

> <PUBCHEM_IUPAC_CAS_NAME>
5-[3-[4-(2,3-dichlorophenyl)-1,4-diazepan-1-yl]propoxy]-1,3-benzothiazole

> <PUBCHEM_IUPAC_NAME_MARKUP>
5-[3-[4-(2,3-dichlorophenyl)-1,4-diazepan-1-yl]propoxy]-1,3-benzothiazole

> <PUBCHEM_IUPAC_NAME>
5-[3-[4-(2,3-dichlorophenyl)-1,4-diazepan-1-yl]propoxy]-1,3-benzothiazole

> <PUBCHEM_IUPAC_SYSTEMATIC_NAME>
5-[3-[4-[2,3-bis(chloranyl)phenyl]-1,4-diazepan-1-yl]propoxy]-1,3-benzothiazole

> <PUBCHEM_IUPAC_TRADITIONAL_NAME>
5-[3-[4-(2,3-dichlorophenyl)-1,4-diazepan-1-yl]propoxy]-1,3-benzothiazole

> <PUBCHEM_IUPAC_INCHI>
InChI=1S/C21H23Cl2N3OS/c22-17-4-1-5-19(21(17)23)26-10-2-8-25(11-12-26)9-3-13-27-16-6-7-20-18(14-16)24-15-28-20/h1,4-7,14-15H,2-3,8-13H2

> <PUBCHEM_IUPAC_INCHIKEY>
QVTRXUDCQFWWGV-UHFFFAOYSA-N

> <PUBCHEM_XLOGP3_AA>
5.9

> <PUBCHEM_EXACT_MASS>
435.0938889

> <PUBCHEM_MOLECULAR_FORMULA>
C21H23Cl2N3OS

> <PUBCHEM_MOLECULAR_WEIGHT>
436.4

> <PUBCHEM_OPENEYE_CAN_SMILES>
C1CN(CCN(C1)C2=C(C(=CC=C2)Cl)Cl)CCCOC3=CC4=C(C=C3)SC=N4

> <PUBCHEM_OPENEYE_ISO_SMILES>
C1CN(CCN(C1)C2=C(C(=CC=C2)Cl)Cl)CCCOC3=CC4=C(C=C3)SC=N4

> <PUBCHEM_CACTVS_TPSA>
56.8

> <PUBCHEM_MONOISOTOPIC_WEIGHT>
435.0938889

> <PUBCHEM_TOTAL_CHARGE>
0

> <PUBCHEM_HEAVY_ATOM_COUNT>
28

> <PUBCHEM_ATOM_DEF_STEREO_COUNT>
0

> <PUBCHEM_ATOM_UDEF_STEREO_COUNT>
0

> <PUBCHEM_BOND_DEF_STEREO_COUNT>
0

> <PUBCHEM_BOND_UDEF_STEREO_COUNT>
0

> <PUBCHEM_ISOTOPIC_ATOM_COUNT>
0

> <PUBCHEM_COMPONENT_COUNT>
1

> <PUBCHEM_CACTVS_TAUTO_COUNT>
-1

> <PUBCHEM_COORDINATE_TYPE>
1
5
255

> <PUBCHEM_BONDANNOTATIONS>
15  17  8
15  18  8
17  19  8
18  20  8
19  21  8
20  21  8
22  23  8
22  24  8
23  25  8
24  27  8
25  26  8
26  27  8
3  26  8
3  28  8
7  25  8
7  28  8

$$$$
