168272182
  -OEChem-09292322452D

 55 59  0     0  0  0  0  0  0999 V2000
   15.2619   -2.1767    0.0000 Cl  0  0  0  0  0  0  0  0  0  0  0  0
    4.9889    3.0427    0.0000 O   0  0  0  0  0  0  0  0  0  0  0  0
    9.2619   -2.1767    0.0000 N   0  0  0  0  0  0  0  0  0  0  0  0
   11.2619   -2.1767    0.0000 N   0  0  0  0  0  0  0  0  0  0  0  0
    5.2619    1.2874    0.0000 N   0  0  0  0  0  0  0  0  0  0  0  0
    3.7320    1.7874    0.0000 N   0  0  0  0  0  0  0  0  0  0  0  0
    4.6783    0.4827    0.0000 N   0  0  0  0  0  0  0  0  0  0  0  0
    9.7619   -3.0427    0.0000 C   0  0  0  0  0  0  0  0  0  0  0  0
    9.7619   -1.3106    0.0000 C   0  0  0  0  0  0  0  0  0  0  0  0
   10.7619   -3.0427    0.0000 C   0  0  0  0  0  0  0  0  0  0  0  0
   10.7619   -1.3106    0.0000 C   0  0  0  0  0  0  0  0  0  0  0  0
    8.2619   -2.1767    0.0000 C   0  0  0  0  0  0  0  0  0  0  0  0
   12.2619   -2.1767    0.0000 C   0  0  0  0  0  0  0  0  0  0  0  0
    7.7619   -1.3106    0.0000 C   0  0  0  0  0  0  0  0  0  0  0  0
    6.7619   -1.3106    0.0000 C   0  0  0  0  0  0  0  0  0  0  0  0
    8.2619   -0.4446    0.0000 C   0  0  0  0  0  0  0  0  0  0  0  0
   12.7619   -3.0427    0.0000 C   0  0  0  0  0  0  0  0  0  0  0  0
   12.7619   -1.3106    0.0000 C   0  0  0  0  0  0  0  0  0  0  0  0
    6.7619    0.4214    0.0000 C   0  0  0  0  0  0  0  0  0  0  0  0
    6.2619   -0.4446    0.0000 C   0  0  0  0  0  0  0  0  0  0  0  0
    7.7619    0.4214    0.0000 C   0  0  0  0  0  0  0  0  0  0  0  0
    6.2619    1.2874    0.0000 C   0  0  0  0  0  0  0  0  0  0  0  0
   13.7619   -3.0427    0.0000 C   0  0  0  0  0  0  0  0  0  0  0  0
   13.7619   -1.3106    0.0000 C   0  0  0  0  0  0  0  0  0  0  0  0
   14.2619   -2.1767    0.0000 C   0  0  0  0  0  0  0  0  0  0  0  0
    4.6783    2.0922    0.0000 C   0  0  0  0  0  0  0  0  0  0  0  0
    3.7320    0.7874    0.0000 C   0  0  0  0  0  0  0  0  0  0  0  0
    2.8660    2.2874    0.0000 C   0  0  0  0  0  0  0  0  0  0  0  0
    2.8660    0.2874    0.0000 C   0  0  0  0  0  0  0  0  0  0  0  0
    2.0000    1.7874    0.0000 C   0  0  0  0  0  0  0  0  0  0  0  0
    2.0000    0.7874    0.0000 C   0  0  0  0  0  0  0  0  0  0  0  0
    9.1793   -3.2547    0.0000 H   0  0  0  0  0  0  0  0  0  0  0  0
    9.8695   -3.6533    0.0000 H   0  0  0  0  0  0  0  0  0  0  0  0
    9.8695   -0.7001    0.0000 H   0  0  0  0  0  0  0  0  0  0  0  0
    9.1793   -1.0986    0.0000 H   0  0  0  0  0  0  0  0  0  0  0  0
   10.6542   -3.6533    0.0000 H   0  0  0  0  0  0  0  0  0  0  0  0
   11.3445   -3.2547    0.0000 H   0  0  0  0  0  0  0  0  0  0  0  0
   11.3445   -1.0986    0.0000 H   0  0  0  0  0  0  0  0  0  0  0  0
   10.6542   -0.7001    0.0000 H   0  0  0  0  0  0  0  0  0  0  0  0
    7.6793   -2.3887    0.0000 H   0  0  0  0  0  0  0  0  0  0  0  0
    8.3695   -2.7872    0.0000 H   0  0  0  0  0  0  0  0  0  0  0  0
    6.4519   -1.8476    0.0000 H   0  0  0  0  0  0  0  0  0  0  0  0
    8.8819   -0.4446    0.0000 H   0  0  0  0  0  0  0  0  0  0  0  0
   12.4519   -3.5796    0.0000 H   0  0  0  0  0  0  0  0  0  0  0  0
   12.4519   -0.7737    0.0000 H   0  0  0  0  0  0  0  0  0  0  0  0
    5.6419   -0.4446    0.0000 H   0  0  0  0  0  0  0  0  0  0  0  0
    8.0719    0.9583    0.0000 H   0  0  0  0  0  0  0  0  0  0  0  0
    6.8445    1.4995    0.0000 H   0  0  0  0  0  0  0  0  0  0  0  0
    6.1542    1.8980    0.0000 H   0  0  0  0  0  0  0  0  0  0  0  0
   14.0719   -3.5796    0.0000 H   0  0  0  0  0  0  0  0  0  0  0  0
   14.0719   -0.7737    0.0000 H   0  0  0  0  0  0  0  0  0  0  0  0
    2.8660    2.9074    0.0000 H   0  0  0  0  0  0  0  0  0  0  0  0
    2.8660   -0.3326    0.0000 H   0  0  0  0  0  0  0  0  0  0  0  0
    1.4631    2.0974    0.0000 H   0  0  0  0  0  0  0  0  0  0  0  0
    1.4631    0.4774    0.0000 H   0  0  0  0  0  0  0  0  0  0  0  0
  1 25  1  0  0  0  0
  2 26  2  0  0  0  0
  3  8  1  0  0  0  0
  3  9  1  0  0  0  0
  3 12  1  0  0  0  0
  4 10  1  0  0  0  0
  4 11  1  0  0  0  0
  4 13  1  0  0  0  0
  5  7  1  0  0  0  0
  5 22  1  0  0  0  0
  5 26  1  0  0  0  0
  6 26  1  0  0  0  0
  6 27  1  0  0  0  0
  6 28  1  0  0  0  0
  7 27  2  0  0  0  0
  8 10  1  0  0  0  0
  8 32  1  0  0  0  0
  8 33  1  0  0  0  0
  9 11  1  0  0  0  0
  9 34  1  0  0  0  0
  9 35  1  0  0  0  0
 10 36  1  0  0  0  0
 10 37  1  0  0  0  0
 11 38  1  0  0  0  0
 11 39  1  0  0  0  0
 12 14  1  0  0  0  0
 12 40  1  0  0  0  0
 12 41  1  0  0  0  0
 13 17  2  0  0  0  0
 13 18  1  0  0  0  0
 14 15  2  0  0  0  0
 14 16  1  0  0  0  0
 15 20  1  0  0  0  0
 15 42  1  0  0  0  0
 16 21  2  0  0  0  0
 16 43  1  0  0  0  0
 17 23  1  0  0  0  0
 17 44  1  0  0  0  0
 18 24  2  0  0  0  0
 18 45  1  0  0  0  0
 19 20  2  0  0  0  0
 19 21  1  0  0  0  0
 19 22  1  0  0  0  0
 20 46  1  0  0  0  0
 21 47  1  0  0  0  0
 22 48  1  0  0  0  0
 22 49  1  0  0  0  0
 23 25  2  0  0  0  0
 23 50  1  0  0  0  0
 24 25  1  0  0  0  0
 24 51  1  0  0  0  0
 27 29  1  0  0  0  0
 28 30  2  0  0  0  0
 28 52  1  0  0  0  0
 29 31  2  0  0  0  0
 29 53  1  0  0  0  0
 30 31  1  0  0  0  0
 30 54  1  0  0  0  0
 31 55  1  0  0  0  0
M  END
> <PUBCHEM_COMPOUND_CID>
168272182

> <PUBCHEM_COMPOUND_CANONICALIZED>
1

> <PUBCHEM_CACTVS_COMPLEXITY>
728

> <PUBCHEM_CACTVS_HBOND_ACCEPTOR>
4

> <PUBCHEM_CACTVS_HBOND_DONOR>
0

> <PUBCHEM_CACTVS_ROTATABLE_BOND>
5

> <PUBCHEM_CACTVS_SUBSKEYS>
AAADceB7oAAEAAAAAAAAAAAAAAAAAQAAAAA8YIEAAAAAAEABQAAAHgIIAAAADArBGCQxwIMAAACoAiZmcACSAAAhBwAfiAAYZpiIYCLBk5GUIAhojgLIyAcQgAAOQABAAAAAAACAAIAAAAAAAAAAAAAAAA==

> <PUBCHEM_IUPAC_OPENEYE_NAME>
2-[[4-[[4-(4-chlorophenyl)piperazin-1-yl]methyl]phenyl]methyl]-[1,2,4]triazolo[4,3-a]pyridin-3-one

> <PUBCHEM_IUPAC_CAS_NAME>
2-[[4-[[4-(4-chlorophenyl)-1-piperazinyl]methyl]phenyl]methyl]-[1,2,4]triazolo[4,3-a]pyridin-3-one

> <PUBCHEM_IUPAC_NAME_MARKUP>
2-[[4-[[4-(4-chlorophenyl)piperazin-1-yl]methyl]phenyl]methyl]-[1,2,4]triazolo[4,3-a]pyridin-3-one

> <PUBCHEM_IUPAC_NAME>
2-[[4-[[4-(4-chlorophenyl)piperazin-1-yl]methyl]phenyl]methyl]-[1,2,4]triazolo[4,3-a]pyridin-3-one

> <PUBCHEM_IUPAC_SYSTEMATIC_NAME>
2-[[4-[[4-(4-chlorophenyl)piperazin-1-yl]methyl]phenyl]methyl]-[1,2,4]triazolo[4,3-a]pyridin-3-one

> <PUBCHEM_IUPAC_TRADITIONAL_NAME>
2-[4-[[4-(4-chlorophenyl)piperazino]methyl]benzyl]-[1,2,4]triazolo[4,3-a]pyridin-3-one

> <PUBCHEM_IUPAC_INCHI>
InChI=1S/C24H24ClN5O/c25-21-8-10-22(11-9-21)28-15-13-27(14-16-28)17-19-4-6-20(7-5-19)18-30-24(31)29-12-2-1-3-23(29)26-30/h1-12H,13-18H2

> <PUBCHEM_IUPAC_INCHIKEY>
FEBUIPJWEZWCKO-UHFFFAOYSA-N

> <PUBCHEM_XLOGP3_AA>
3.8

> <PUBCHEM_EXACT_MASS>
433.1669381

> <PUBCHEM_MOLECULAR_FORMULA>
C24H24ClN5O

> <PUBCHEM_MOLECULAR_WEIGHT>
433.9

> <PUBCHEM_OPENEYE_CAN_SMILES>
C1CN(CCN1CC2=CC=C(C=C2)CN3C(=O)N4C=CC=CC4=N3)C5=CC=C(C=C5)Cl

> <PUBCHEM_OPENEYE_ISO_SMILES>
C1CN(CCN1CC2=CC=C(C=C2)CN3C(=O)N4C=CC=CC4=N3)C5=CC=C(C=C5)Cl

> <PUBCHEM_CACTVS_TPSA>
42.4

> <PUBCHEM_MONOISOTOPIC_WEIGHT>
433.1669381

> <PUBCHEM_TOTAL_CHARGE>
0

> <PUBCHEM_HEAVY_ATOM_COUNT>
31

> <PUBCHEM_ATOM_DEF_STEREO_COUNT>
0

> <PUBCHEM_ATOM_UDEF_STEREO_COUNT>
0

> <PUBCHEM_BOND_DEF_STEREO_COUNT>
0

> <PUBCHEM_BOND_UDEF_STEREO_COUNT>
0

> <PUBCHEM_ISOTOPIC_ATOM_COUNT>
0

> <PUBCHEM_COMPONENT_COUNT>
1

> <PUBCHEM_CACTVS_TAUTO_COUNT>
-1

> <PUBCHEM_COORDINATE_TYPE>
1
5
255

> <PUBCHEM_BONDANNOTATIONS>
13  17  8
13  18  8
14  15  8
14  16  8
15  20  8
16  21  8
17  23  8
18  24  8
19  20  8
19  21  8
23  25  8
24  25  8
27  29  8
28  30  8
29  31  8
30  31  8
5  26  8
5  7  8
6  26  8
6  27  8
6  28  8
7  27  8

$$$$
