44581972
  -OEChem-09292322232D

 62 66  0     0  0  0  0  0  0999 V2000
    2.0000    0.6900    0.0000 Cl  0  0  0  0  0  0  0  0  0  0  0  0
    2.0000   -1.3100    0.0000 O   0  0  0  0  0  0  0  0  0  0  0  0
    8.0622   -3.8100    0.0000 O   0  0  0  0  0  0  0  0  0  0  0  0
    3.7320    1.6900    0.0000 N   0  0  0  0  0  0  0  0  0  0  0  0
    3.7320    3.6900    0.0000 N   0  0  0  0  0  0  0  0  0  0  0  0
    3.7320   -1.3100    0.0000 N   0  0  0  0  0  0  0  0  0  0  0  0
    4.5981   -0.8100    0.0000 N   0  0  0  0  0  0  0  0  0  0  0  0
    7.1962   -2.3100    0.0000 N   0  0  0  0  0  0  0  0  0  0  0  0
    4.5981    2.1900    0.0000 C   0  0  0  0  0  0  0  0  0  0  0  0
    2.8660    2.1900    0.0000 C   0  0  0  0  0  0  0  0  0  0  0  0
    4.5981    3.1900    0.0000 C   0  0  0  0  0  0  0  0  0  0  0  0
    2.8660    3.1900    0.0000 C   0  0  0  0  0  0  0  0  0  0  0  0
    3.7320    0.6900    0.0000 C   0  0  0  0  0  0  0  0  0  0  0  0
    2.8660    0.1900    0.0000 C   0  0  0  0  0  0  0  0  0  0  0  0
    4.5981    0.1900    0.0000 C   0  0  0  0  0  0  0  0  0  0  0  0
    2.8660   -0.8100    0.0000 C   0  0  0  0  0  0  0  0  0  0  0  0
    3.7320   -2.3100    0.0000 C   0  0  0  0  0  0  0  0  0  0  0  0
    4.5981   -2.8100    0.0000 C   0  0  0  0  0  0  0  0  0  0  0  0
    5.4641   -2.3100    0.0000 C   0  0  0  0  0  0  0  0  0  0  0  0
    4.5981   -3.8100    0.0000 C   0  0  0  0  0  0  0  0  0  0  0  0
    6.3301   -2.8100    0.0000 C   0  0  0  0  0  0  0  0  0  0  0  0
    5.4641   -4.3100    0.0000 C   0  0  0  0  0  0  0  0  0  0  0  0
    6.3301   -3.8100    0.0000 C   0  0  0  0  0  0  0  0  0  0  0  0
    8.9282   -2.3100    0.0000 C   0  0  0  0  0  0  0  0  0  0  0  0
    8.0622   -2.8100    0.0000 C   0  0  0  0  0  0  0  0  0  0  0  0
   10.6603   -1.3100    0.0000 C   0  0  0  0  0  0  0  0  0  0  0  0
    8.9282   -1.3100    0.0000 C   0  0  0  0  0  0  0  0  0  0  0  0
    9.7942   -2.8100    0.0000 C   0  0  0  0  0  0  0  0  0  0  0  0
   11.5263   -0.8100    0.0000 C   0  0  0  0  0  0  0  0  0  0  0  0
    9.7942   -0.8100    0.0000 C   0  0  0  0  0  0  0  0  0  0  0  0
   10.6603   -2.3100    0.0000 C   0  0  0  0  0  0  0  0  0  0  0  0
   11.5263    0.1900    0.0000 C   0  0  0  0  0  0  0  0  0  0  0  0
   12.3923   -1.3100    0.0000 C   0  0  0  0  0  0  0  0  0  0  0  0
   12.3923    0.6900    0.0000 C   0  0  0  0  0  0  0  0  0  0  0  0
   13.2583   -0.8100    0.0000 C   0  0  0  0  0  0  0  0  0  0  0  0
   13.2583    0.1900    0.0000 C   0  0  0  0  0  0  0  0  0  0  0  0
    4.8101    1.6074    0.0000 H   0  0  0  0  0  0  0  0  0  0  0  0
    5.2087    2.2977    0.0000 H   0  0  0  0  0  0  0  0  0  0  0  0
    2.2554    2.2977    0.0000 H   0  0  0  0  0  0  0  0  0  0  0  0
    2.6540    1.6074    0.0000 H   0  0  0  0  0  0  0  0  0  0  0  0
    5.2087    3.0823    0.0000 H   0  0  0  0  0  0  0  0  0  0  0  0
    4.8101    3.7726    0.0000 H   0  0  0  0  0  0  0  0  0  0  0  0
    2.6540    3.7726    0.0000 H   0  0  0  0  0  0  0  0  0  0  0  0
    2.2554    3.0823    0.0000 H   0  0  0  0  0  0  0  0  0  0  0  0
    3.7320    4.3100    0.0000 H   0  0  0  0  0  0  0  0  0  0  0  0
    5.1350    0.5000    0.0000 H   0  0  0  0  0  0  0  0  0  0  0  0
    3.1215   -2.2023    0.0000 H   0  0  0  0  0  0  0  0  0  0  0  0
    3.5200   -2.8926    0.0000 H   0  0  0  0  0  0  0  0  0  0  0  0
    5.4641   -1.6900    0.0000 H   0  0  0  0  0  0  0  0  0  0  0  0
    4.0611   -4.1200    0.0000 H   0  0  0  0  0  0  0  0  0  0  0  0
    5.4641   -4.9300    0.0000 H   0  0  0  0  0  0  0  0  0  0  0  0
    6.8671   -4.1200    0.0000 H   0  0  0  0  0  0  0  0  0  0  0  0
    7.1962   -1.6900    0.0000 H   0  0  0  0  0  0  0  0  0  0  0  0
    8.3913   -1.0000    0.0000 H   0  0  0  0  0  0  0  0  0  0  0  0
    9.7942   -3.4300    0.0000 H   0  0  0  0  0  0  0  0  0  0  0  0
    9.7942   -0.1900    0.0000 H   0  0  0  0  0  0  0  0  0  0  0  0
   11.1972   -2.6200    0.0000 H   0  0  0  0  0  0  0  0  0  0  0  0
   10.9893    0.5000    0.0000 H   0  0  0  0  0  0  0  0  0  0  0  0
   12.3923   -1.9300    0.0000 H   0  0  0  0  0  0  0  0  0  0  0  0
   12.3923    1.3100    0.0000 H   0  0  0  0  0  0  0  0  0  0  0  0
   13.7953   -1.1200    0.0000 H   0  0  0  0  0  0  0  0  0  0  0  0
   13.7953    0.5000    0.0000 H   0  0  0  0  0  0  0  0  0  0  0  0
  1 14  1  0  0  0  0
  2 16  2  0  0  0  0
  3 25  2  0  0  0  0
  4  9  1  0  0  0  0
  4 10  1  0  0  0  0
  4 13  1  0  0  0  0
  5 11  1  0  0  0  0
  5 12  1  0  0  0  0
  5 45  1  0  0  0  0
  6  7  1  0  0  0  0
  6 16  1  0  0  0  0
  6 17  1  0  0  0  0
  7 15  2  0  0  0  0
  8 21  1  0  0  0  0
  8 25  1  0  0  0  0
  8 53  1  0  0  0  0
  9 11  1  0  0  0  0
  9 37  1  0  0  0  0
  9 38  1  0  0  0  0
 10 12  1  0  0  0  0
 10 39  1  0  0  0  0
 10 40  1  0  0  0  0
 11 41  1  0  0  0  0
 11 42  1  0  0  0  0
 12 43  1  0  0  0  0
 12 44  1  0  0  0  0
 13 14  2  0  0  0  0
 13 15  1  0  0  0  0
 14 16  1  0  0  0  0
 15 46  1  0  0  0  0
 17 18  1  0  0  0  0
 17 47  1  0  0  0  0
 17 48  1  0  0  0  0
 18 19  2  0  0  0  0
 18 20  1  0  0  0  0
 19 21  1  0  0  0  0
 19 49  1  0  0  0  0
 20 22  2  0  0  0  0
 20 50  1  0  0  0  0
 21 23  2  0  0  0  0
 22 23  1  0  0  0  0
 22 51  1  0  0  0  0
 23 52  1  0  0  0  0
 24 25  1  0  0  0  0
 24 27  2  0  0  0  0
 24 28  1  0  0  0  0
 26 29  1  0  0  0  0
 26 30  2  0  0  0  0
 26 31  1  0  0  0  0
 27 30  1  0  0  0  0
 27 54  1  0  0  0  0
 28 31  2  0  0  0  0
 28 55  1  0  0  0  0
 29 32  2  0  0  0  0
 29 33  1  0  0  0  0
 30 56  1  0  0  0  0
 31 57  1  0  0  0  0
 32 34  1  0  0  0  0
 32 58  1  0  0  0  0
 33 35  2  0  0  0  0
 33 59  1  0  0  0  0
 34 36  2  0  0  0  0
 34 60  1  0  0  0  0
 35 36  1  0  0  0  0
 35 61  1  0  0  0  0
 36 62  1  0  0  0  0
M  END
> <PUBCHEM_COMPOUND_CID>
44581972

> <PUBCHEM_COMPOUND_CANONICALIZED>
1

> <PUBCHEM_CACTVS_COMPLEXITY>
841

> <PUBCHEM_CACTVS_HBOND_ACCEPTOR>
5

> <PUBCHEM_CACTVS_HBOND_DONOR>
2

> <PUBCHEM_CACTVS_ROTATABLE_BOND>
6

> <PUBCHEM_CACTVS_SUBSKEYS>
AAADceB7sAAEAAAAAAAAAAAAAAAAAAAAAAA8YMECAAAAAAABUAAAHgIYAAAADArBmAQwwIPAAACoAjVzUACSAAAlAgAaiIEIZNhIYDLAlZHUIQhgngDIyccYiMCOwAAAQAAAAACAAACAAAAAAAAAAAAAAA==

> <PUBCHEM_IUPAC_OPENEYE_NAME>
N-[3-[(5-chloro-6-oxo-4-piperazin-1-yl-pyridazin-1-yl)methyl]phenyl]-4-phenyl-benzamide

> <PUBCHEM_IUPAC_CAS_NAME>
N-[3-[[5-chloro-6-oxo-4-(1-piperazinyl)-1-pyridazinyl]methyl]phenyl]-4-phenylbenzamide

> <PUBCHEM_IUPAC_NAME_MARKUP>
<I>N</I>-[3-[(5-chloro-6-oxo-4-piperazin-1-ylpyridazin-1-yl)methyl]phenyl]-4-phenylbenzamide

> <PUBCHEM_IUPAC_NAME>
N-[3-[(5-chloro-6-oxo-4-piperazin-1-ylpyridazin-1-yl)methyl]phenyl]-4-phenylbenzamide

> <PUBCHEM_IUPAC_SYSTEMATIC_NAME>
N-[3-[(5-chloranyl-6-oxidanylidene-4-piperazin-1-yl-pyridazin-1-yl)methyl]phenyl]-4-phenyl-benzamide

> <PUBCHEM_IUPAC_TRADITIONAL_NAME>
N-[3-[(5-chloro-6-keto-4-piperazino-pyridazin-1-yl)methyl]phenyl]-4-phenyl-benzamide

> <PUBCHEM_IUPAC_INCHI>
InChI=1S/C28H26ClN5O2/c29-26-25(33-15-13-30-14-16-33)18-31-34(28(26)36)19-20-5-4-8-24(17-20)32-27(35)23-11-9-22(10-12-23)21-6-2-1-3-7-21/h1-12,17-18,30H,13-16,19H2,(H,32,35)

> <PUBCHEM_IUPAC_INCHIKEY>
IIGRUZXPSNFKHF-UHFFFAOYSA-N

> <PUBCHEM_XLOGP3_AA>
3.9

> <PUBCHEM_EXACT_MASS>
499.1775028

> <PUBCHEM_MOLECULAR_FORMULA>
C28H26ClN5O2

> <PUBCHEM_MOLECULAR_WEIGHT>
500.0

> <PUBCHEM_OPENEYE_CAN_SMILES>
C1CN(CCN1)C2=C(C(=O)N(N=C2)CC3=CC(=CC=C3)NC(=O)C4=CC=C(C=C4)C5=CC=CC=C5)Cl

> <PUBCHEM_OPENEYE_ISO_SMILES>
C1CN(CCN1)C2=C(C(=O)N(N=C2)CC3=CC(=CC=C3)NC(=O)C4=CC=C(C=C4)C5=CC=CC=C5)Cl

> <PUBCHEM_CACTVS_TPSA>
77

> <PUBCHEM_MONOISOTOPIC_WEIGHT>
499.1775028

> <PUBCHEM_TOTAL_CHARGE>
0

> <PUBCHEM_HEAVY_ATOM_COUNT>
36

> <PUBCHEM_ATOM_DEF_STEREO_COUNT>
0

> <PUBCHEM_ATOM_UDEF_STEREO_COUNT>
0

> <PUBCHEM_BOND_DEF_STEREO_COUNT>
0

> <PUBCHEM_BOND_UDEF_STEREO_COUNT>
0

> <PUBCHEM_ISOTOPIC_ATOM_COUNT>
0

> <PUBCHEM_COMPONENT_COUNT>
1

> <PUBCHEM_CACTVS_TAUTO_COUNT>
-1

> <PUBCHEM_COORDINATE_TYPE>
1
5
255

> <PUBCHEM_BONDANNOTATIONS>
13  14  8
13  15  8
14  16  8
18  19  8
18  20  8
19  21  8
20  22  8
21  23  8
22  23  8
24  27  8
24  28  8
26  30  8
26  31  8
27  30  8
28  31  8
29  32  8
29  33  8
32  34  8
33  35  8
34  36  8
35  36  8
6  16  8
6  7  8
7  15  8

$$$$
