164628874
  -OEChem-09292322432D

 70 73  0     1  0  0  0  0  0999 V2000
    5.8858   -4.1911    0.0000 Cl  0  0  0  0  0  0  0  0  0  0  0  0
    4.6660    1.4144    0.0000 O   0  0  0  0  0  0  0  0  0  0  0  0
    6.0052   -0.5875    0.0000 O   0  0  0  0  0  0  0  0  0  0  0  0
    5.4700   -2.2348    0.0000 O   0  0  0  0  0  0  0  0  0  0  0  0
    8.8584   -1.5146    0.0000 O   0  0  0  0  0  0  0  0  0  0  0  0
    8.1301    2.4144    0.0000 N   0  0  3  0  0  0  0  0  0  0  0  0
    7.6994   -0.2274    0.0000 N   0  0  0  0  0  0  0  0  0  0  0  0
    3.8000    2.9144    0.0000 N   0  0  0  0  0  0  0  0  0  0  0  0
    4.6660    4.4144    0.0000 N   0  0  0  0  0  0  0  0  0  0  0  0
    8.2347    1.4198    0.0000 C   0  0  1  0  0  0  0  0  0  0  0  0
    9.2128    1.2119    0.0000 C   0  0  0  0  0  0  0  0  0  0  0  0
    9.0437    2.8211    0.0000 C   0  0  0  0  0  0  0  0  0  0  0  0
    9.7128    2.0780    0.0000 C   0  0  0  0  0  0  0  0  0  0  0  0
    7.2641    2.9144    0.0000 C   0  0  0  0  0  0  0  0  0  0  0  0
    7.4915    0.7507    0.0000 C   0  0  0  0  0  0  0  0  0  0  0  0
    6.3981    2.4144    0.0000 C   0  0  0  0  0  0  0  0  0  0  0  0
    5.5321    2.9144    0.0000 C   0  0  0  0  0  0  0  0  0  0  0  0
    4.6660    2.4144    0.0000 C   0  0  0  0  0  0  0  0  0  0  0  0
    2.9061    2.3797    0.0000 C   0  0  0  0  0  0  0  0  0  0  0  0
    3.8000    3.9144    0.0000 C   0  0  0  0  0  0  0  0  0  0  0  0
    2.0000    2.8936    0.0000 C   0  0  0  0  0  0  0  0  0  0  0  0
    2.9061    4.4490    0.0000 C   0  0  0  0  0  0  0  0  0  0  0  0
    5.5321    3.9144    0.0000 C   0  0  0  0  0  0  0  0  0  0  0  0
    2.0000    3.9352    0.0000 C   0  0  0  0  0  0  0  0  0  0  0  0
    6.9563   -0.8966    0.0000 C   0  0  0  0  0  0  0  0  0  0  0  0
    6.3981    4.4144    0.0000 C   0  0  0  0  0  0  0  0  0  0  0  0
    7.1642   -1.8747    0.0000 C   0  0  0  0  0  0  0  0  0  0  0  0
    8.1152   -2.1837    0.0000 C   0  0  0  0  0  0  0  0  0  0  0  0
    6.4210   -2.5438    0.0000 C   0  0  0  0  0  0  0  0  0  0  0  0
    8.3232   -3.1619    0.0000 C   0  0  0  0  0  0  0  0  0  0  0  0
    6.6290   -3.5220    0.0000 C   0  0  0  0  0  0  0  0  0  0  0  0
    7.5800   -3.8310    0.0000 C   0  0  0  0  0  0  0  0  0  0  0  0
    9.2742   -3.4709    0.0000 C   0  0  0  0  0  0  0  0  0  0  0  0
    9.4821   -4.4490    0.0000 C   0  0  0  0  0  0  0  0  0  0  0  0
    4.7268   -2.9040    0.0000 C   0  0  0  0  0  0  0  0  0  0  0  0
    7.6558    1.6420    0.0000 H   0  0  0  0  0  0  0  0  0  0  0  0
    9.0212    0.6223    0.0000 H   0  0  0  0  0  0  0  0  0  0  0  0
    9.7792    0.9598    0.0000 H   0  0  0  0  0  0  0  0  0  0  0  0
    9.5453    3.1855    0.0000 H   0  0  0  0  0  0  0  0  0  0  0  0
    8.7337    3.3580    0.0000 H   0  0  0  0  0  0  0  0  0  0  0  0
   10.2144    1.7135    0.0000 H   0  0  0  0  0  0  0  0  0  0  0  0
   10.1277    2.5387    0.0000 H   0  0  0  0  0  0  0  0  0  0  0  0
    7.6626    3.3893    0.0000 H   0  0  0  0  0  0  0  0  0  0  0  0
    6.8656    3.3893    0.0000 H   0  0  0  0  0  0  0  0  0  0  0  0
    7.1630    1.2765    0.0000 H   0  0  0  0  0  0  0  0  0  0  0  0
    6.9167    0.5185    0.0000 H   0  0  0  0  0  0  0  0  0  0  0  0
    5.9996    1.9394    0.0000 H   0  0  0  0  0  0  0  0  0  0  0  0
    6.7966    1.9394    0.0000 H   0  0  0  0  0  0  0  0  0  0  0  0
    8.2891   -0.4190    0.0000 H   0  0  0  0  0  0  0  0  0  0  0  0
    2.5124    1.9007    0.0000 H   0  0  0  0  0  0  0  0  0  0  0  0
    3.3107    1.9099    0.0000 H   0  0  0  0  0  0  0  0  0  0  0  0
    1.3891    2.9996    0.0000 H   0  0  0  0  0  0  0  0  0  0  0  0
    1.7909    2.3099    0.0000 H   0  0  0  0  0  0  0  0  0  0  0  0
    3.3107    4.9188    0.0000 H   0  0  0  0  0  0  0  0  0  0  0  0
    2.5124    4.9280    0.0000 H   0  0  0  0  0  0  0  0  0  0  0  0
    1.7909    4.5189    0.0000 H   0  0  0  0  0  0  0  0  0  0  0  0
    1.3891    3.8291    0.0000 H   0  0  0  0  0  0  0  0  0  0  0  0
    6.7081    3.8774    0.0000 H   0  0  0  0  0  0  0  0  0  0  0  0
    6.9350    4.7244    0.0000 H   0  0  0  0  0  0  0  0  0  0  0  0
    6.0881    4.9513    0.0000 H   0  0  0  0  0  0  0  0  0  0  0  0
    7.7089   -4.4374    0.0000 H   0  0  0  0  0  0  0  0  0  0  0  0
    9.8938   -3.4492    0.0000 H   0  0  0  0  0  0  0  0  0  0  0  0
    9.3605   -2.8569    0.0000 H   0  0  0  0  0  0  0  0  0  0  0  0
    9.4480   -1.7062    0.0000 H   0  0  0  0  0  0  0  0  0  0  0  0
    8.8757   -4.5779    0.0000 H   0  0  0  0  0  0  0  0  0  0  0  0
    9.6110   -5.0555    0.0000 H   0  0  0  0  0  0  0  0  0  0  0  0
   10.0886   -4.3201    0.0000 H   0  0  0  0  0  0  0  0  0  0  0  0
    4.3120   -2.4432    0.0000 H   0  0  0  0  0  0  0  0  0  0  0  0
    4.2661   -3.3188    0.0000 H   0  0  0  0  0  0  0  0  0  0  0  0
    5.1417   -3.3647    0.0000 H   0  0  0  0  0  0  0  0  0  0  0  0
  1 31  1  0  0  0  0
  2 18  2  0  0  0  0
  3 25  2  0  0  0  0
  4 29  1  0  0  0  0
  4 35  1  0  0  0  0
  5 28  1  0  0  0  0
  5 64  1  0  0  0  0
  6 10  1  0  0  0  0
  6 12  1  0  0  0  0
  6 14  1  0  0  0  0
  7 15  1  0  0  0  0
  7 25  1  0  0  0  0
  7 49  1  0  0  0  0
  8 18  1  0  0  0  0
  8 19  1  0  0  0  0
  8 20  1  0  0  0  0
  9 20  2  0  0  0  0
  9 23  1  0  0  0  0
 10 11  1  0  0  0  0
 10 15  1  1  0  0  0
 10 36  1  0  0  0  0
 11 13  1  0  0  0  0
 11 37  1  0  0  0  0
 11 38  1  0  0  0  0
 12 13  1  0  0  0  0
 12 39  1  0  0  0  0
 12 40  1  0  0  0  0
 13 41  1  0  0  0  0
 13 42  1  0  0  0  0
 14 16  1  0  0  0  0
 14 43  1  0  0  0  0
 14 44  1  0  0  0  0
 15 45  1  0  0  0  0
 15 46  1  0  0  0  0
 16 17  1  0  0  0  0
 16 47  1  0  0  0  0
 16 48  1  0  0  0  0
 17 18  1  0  0  0  0
 17 23  2  0  0  0  0
 19 21  1  0  0  0  0
 19 50  1  0  0  0  0
 19 51  1  0  0  0  0
 20 22  1  0  0  0  0
 21 24  1  0  0  0  0
 21 52  1  0  0  0  0
 21 53  1  0  0  0  0
 22 24  1  0  0  0  0
 22 54  1  0  0  0  0
 22 55  1  0  0  0  0
 23 26  1  0  0  0  0
 24 56  1  0  0  0  0
 24 57  1  0  0  0  0
 25 27  1  0  0  0  0
 26 58  1  0  0  0  0
 26 59  1  0  0  0  0
 26 60  1  0  0  0  0
 27 28  2  0  0  0  0
 27 29  1  0  0  0  0
 28 30  1  0  0  0  0
 29 31  2  0  0  0  0
 30 32  2  0  0  0  0
 30 33  1  0  0  0  0
 31 32  1  0  0  0  0
 32 61  1  0  0  0  0
 33 34  1  0  0  0  0
 33 62  1  0  0  0  0
 33 63  1  0  0  0  0
 34 65  1  0  0  0  0
 34 66  1  0  0  0  0
 34 67  1  0  0  0  0
 35 68  1  0  0  0  0
 35 69  1  0  0  0  0
 35 70  1  0  0  0  0
M  END
> <PUBCHEM_COMPOUND_CID>
164628874

> <PUBCHEM_COMPOUND_CANONICALIZED>
1

> <PUBCHEM_CACTVS_COMPLEXITY>
862

> <PUBCHEM_CACTVS_HBOND_ACCEPTOR>
6

> <PUBCHEM_CACTVS_HBOND_DONOR>
2

> <PUBCHEM_CACTVS_ROTATABLE_BOND>
8

> <PUBCHEM_CACTVS_SUBSKEYS>
AAADcfB7uAAEAAAAAAAAAAAAAAAAAWAAAAA8QIAAAAAAAACBAAAAHgIQCAAADC7BmCYzBoPABgCoAidydACCCAEkJUABiIE8D8gMZzeHvxuUcWhn9hWIuUec6OyOICACKAAICABAQARQABAQAAAAAAAAAA==

> <PUBCHEM_IUPAC_OPENEYE_NAME>
5-chloro-3-ethyl-2-hydroxy-6-methoxy-N-[[(2S)-1-[2-(2-methyl-4-oxo-6,7,8,9-tetrahydropyrido[1,2-a]pyrimidin-3-yl)ethyl]pyrrolidin-2-yl]methyl]benzamide

> <PUBCHEM_IUPAC_CAS_NAME>
5-chloro-3-ethyl-2-hydroxy-6-methoxy-N-[[(2S)-1-[2-(2-methyl-4-oxo-6,7,8,9-tetrahydropyrido[1,2-a]pyrimidin-3-yl)ethyl]-2-pyrrolidinyl]methyl]benzamide

> <PUBCHEM_IUPAC_NAME_MARKUP>
5-chloro-3-ethyl-2-hydroxy-6-methoxy-<I>N</I>-[[(2<I>S</I>)-1-[2-(2-methyl-4-oxo-6,7,8,9-tetrahydropyrido[1,2-a]pyrimidin-3-yl)ethyl]pyrrolidin-2-yl]methyl]benzamide

> <PUBCHEM_IUPAC_NAME>
5-chloro-3-ethyl-2-hydroxy-6-methoxy-N-[[(2S)-1-[2-(2-methyl-4-oxo-6,7,8,9-tetrahydropyrido[1,2-a]pyrimidin-3-yl)ethyl]pyrrolidin-2-yl]methyl]benzamide

> <PUBCHEM_IUPAC_SYSTEMATIC_NAME>
3-chloranyl-5-ethyl-2-methoxy-N-[[(2S)-1-[2-(2-methyl-4-oxidanylidene-6,7,8,9-tetrahydropyrido[1,2-a]pyrimidin-3-yl)ethyl]pyrrolidin-2-yl]methyl]-6-oxidanyl-benzamide

> <PUBCHEM_IUPAC_TRADITIONAL_NAME>
5-chloro-3-ethyl-2-hydroxy-N-[[(2S)-1-[2-(4-keto-2-methyl-6,7,8,9-tetrahydropyrido[1,2-a]pyrimidin-3-yl)ethyl]pyrrolidin-2-yl]methyl]-6-methoxy-benzamide

> <PUBCHEM_IUPAC_INCHI>
InChI=1S/C26H35ClN4O4/c1-4-17-14-20(27)24(35-3)22(23(17)32)25(33)28-15-18-8-7-11-30(18)13-10-19-16(2)29-21-9-5-6-12-31(21)26(19)34/h14,18,32H,4-13,15H2,1-3H3,(H,28,33)/t18-/m0/s1

> <PUBCHEM_IUPAC_INCHIKEY>
WEFCQLWBBLEXDK-SFHVURJKSA-N

> <PUBCHEM_XLOGP3_AA>
3.7

> <PUBCHEM_EXACT_MASS>
502.2346833

> <PUBCHEM_MOLECULAR_FORMULA>
C26H35ClN4O4

> <PUBCHEM_MOLECULAR_WEIGHT>
503.0

> <PUBCHEM_OPENEYE_CAN_SMILES>
CCC1=CC(=C(C(=C1O)C(=O)NCC2CCCN2CCC3=C(N=C4CCCCN4C3=O)C)OC)Cl

> <PUBCHEM_OPENEYE_ISO_SMILES>
CCC1=CC(=C(C(=C1O)C(=O)NC[C@@H]2CCCN2CCC3=C(N=C4CCCCN4C3=O)C)OC)Cl

> <PUBCHEM_CACTVS_TPSA>
94.5

> <PUBCHEM_MONOISOTOPIC_WEIGHT>
502.2346833

> <PUBCHEM_TOTAL_CHARGE>
0

> <PUBCHEM_HEAVY_ATOM_COUNT>
35

> <PUBCHEM_ATOM_DEF_STEREO_COUNT>
1

> <PUBCHEM_ATOM_UDEF_STEREO_COUNT>
0

> <PUBCHEM_BOND_DEF_STEREO_COUNT>
0

> <PUBCHEM_BOND_UDEF_STEREO_COUNT>
0

> <PUBCHEM_ISOTOPIC_ATOM_COUNT>
0

> <PUBCHEM_COMPONENT_COUNT>
1

> <PUBCHEM_CACTVS_TAUTO_COUNT>
-1

> <PUBCHEM_COORDINATE_TYPE>
1
5
255

> <PUBCHEM_BONDANNOTATIONS>
10  15  5
17  18  8
17  23  8
27  28  8
27  29  8
28  30  8
29  31  8
30  32  8
31  32  8
8  18  8
8  20  8
9  20  8
9  23  8

$$$$
