155536631
  -OEChem-09292322422D

 51 54  0     1  0  0  0  0  0999 V2000
    2.0000    2.1155    0.0000 F   0  0  0  0  0  0  0  0  0  0  0  0
    8.6279    0.2495    0.0000 N   0  0  3  0  0  0  0  0  0  0  0  0
   10.8185   -0.2505    0.0000 N   0  0  3  0  0  0  0  0  0  0  0  0
   11.7942   -1.6816    0.0000 N   0  0  0  0  0  0  0  0  0  0  0  0
    6.1279    1.1155    0.0000 C   0  0  3  0  0  0  0  0  0  0  0  0
    7.1279    1.1155    0.0000 C   0  0  0  0  0  0  0  0  0  0  0  0
    5.5443    1.9202    0.0000 C   0  0  0  0  0  0  0  0  0  0  0  0
    5.5443    0.3108    0.0000 C   0  0  0  0  0  0  0  0  0  0  0  0
    7.6279    0.2495    0.0000 C   0  0  0  0  0  0  0  0  0  0  0  0
    4.5981    1.6155    0.0000 C   0  0  0  0  0  0  0  0  0  0  0  0
    4.5981    0.6155    0.0000 C   0  0  0  0  0  0  0  0  0  0  0  0
    9.0618    1.1504    0.0000 C   0  0  0  0  0  0  0  0  0  0  0  0
    9.0618   -0.6515    0.0000 C   0  0  0  0  0  0  0  0  0  0  0  0
   10.0367    1.3730    0.0000 C   0  0  0  0  0  0  0  0  0  0  0  0
   10.0367   -0.8740    0.0000 C   0  0  0  0  0  0  0  0  0  0  0  0
   10.8185    0.7495    0.0000 C   0  0  0  0  0  0  0  0  0  0  0  0
    3.7320    2.1155    0.0000 C   0  0  0  0  0  0  0  0  0  0  0  0
    3.7320    0.1155    0.0000 C   0  0  0  0  0  0  0  0  0  0  0  0
    2.8660    1.6155    0.0000 C   0  0  0  0  0  0  0  0  0  0  0  0
    2.8660    0.6155    0.0000 C   0  0  0  0  0  0  0  0  0  0  0  0
   11.7195   -0.6844    0.0000 C   0  0  0  0  0  0  0  0  0  0  0  0
   12.5458   -0.1211    0.0000 C   0  0  0  0  0  0  0  0  0  0  0  0
   13.4467   -0.5550    0.0000 C   0  0  0  0  0  0  0  0  0  0  0  0
   12.6952   -2.1155    0.0000 C   0  0  0  0  0  0  0  0  0  0  0  0
   13.5215   -1.5522    0.0000 C   0  0  0  0  0  0  0  0  0  0  0  0
    6.4096    0.5632    0.0000 H   0  0  0  0  0  0  0  0  0  0  0  0
    7.7105    1.3276    0.0000 H   0  0  0  0  0  0  0  0  0  0  0  0
    7.0202    1.7261    0.0000 H   0  0  0  0  0  0  0  0  0  0  0  0
    6.0817    2.2295    0.0000 H   0  0  0  0  0  0  0  0  0  0  0  0
    5.2933    2.4871    0.0000 H   0  0  0  0  0  0  0  0  0  0  0  0
    5.2933   -0.2561    0.0000 H   0  0  0  0  0  0  0  0  0  0  0  0
    6.0817    0.0015    0.0000 H   0  0  0  0  0  0  0  0  0  0  0  0
    7.0453    0.0374    0.0000 H   0  0  0  0  0  0  0  0  0  0  0  0
    7.7356   -0.3611    0.0000 H   0  0  0  0  0  0  0  0  0  0  0  0
    9.0618    1.7704    0.0000 H   0  0  0  0  0  0  0  0  0  0  0  0
    8.4573    1.2884    0.0000 H   0  0  0  0  0  0  0  0  0  0  0  0
    8.4573   -0.7895    0.0000 H   0  0  0  0  0  0  0  0  0  0  0  0
    9.0618   -1.2715    0.0000 H   0  0  0  0  0  0  0  0  0  0  0  0
   10.5215    1.7595    0.0000 H   0  0  0  0  0  0  0  0  0  0  0  0
    9.7677    1.9316    0.0000 H   0  0  0  0  0  0  0  0  0  0  0  0
    9.7677   -1.4326    0.0000 H   0  0  0  0  0  0  0  0  0  0  0  0
   10.5215   -1.2606    0.0000 H   0  0  0  0  0  0  0  0  0  0  0  0
   11.4230    0.6115    0.0000 H   0  0  0  0  0  0  0  0  0  0  0  0
   11.0876    1.3081    0.0000 H   0  0  0  0  0  0  0  0  0  0  0  0
    3.7320    2.7355    0.0000 H   0  0  0  0  0  0  0  0  0  0  0  0
    3.7320   -0.5045    0.0000 H   0  0  0  0  0  0  0  0  0  0  0  0
    2.3291    0.3055    0.0000 H   0  0  0  0  0  0  0  0  0  0  0  0
   12.4994    0.4972    0.0000 H   0  0  0  0  0  0  0  0  0  0  0  0
   13.9590   -0.2057    0.0000 H   0  0  0  0  0  0  0  0  0  0  0  0
   12.7415   -2.7338    0.0000 H   0  0  0  0  0  0  0  0  0  0  0  0
   14.0801   -1.8212    0.0000 H   0  0  0  0  0  0  0  0  0  0  0  0
  1 19  1  0  0  0  0
  2  9  1  0  0  0  0
  2 12  1  0  0  0  0
  2 13  1  0  0  0  0
  3 15  1  0  0  0  0
  3 16  1  0  0  0  0
  3 21  1  0  0  0  0
  4 21  1  0  0  0  0
  4 24  2  0  0  0  0
  5  6  1  0  0  0  0
  5  7  1  0  0  0  0
  5  8  1  0  0  0  0
  5 26  1  0  0  0  0
  6  9  1  0  0  0  0
  6 27  1  0  0  0  0
  6 28  1  0  0  0  0
  7 10  1  0  0  0  0
  7 29  1  0  0  0  0
  7 30  1  0  0  0  0
  8 11  1  0  0  0  0
  8 31  1  0  0  0  0
  8 32  1  0  0  0  0
  9 33  1  0  0  0  0
  9 34  1  0  0  0  0
 10 11  2  0  0  0  0
 10 17  1  0  0  0  0
 11 18  1  0  0  0  0
 12 14  1  0  0  0  0
 12 35  1  0  0  0  0
 12 36  1  0  0  0  0
 13 15  1  0  0  0  0
 13 37  1  0  0  0  0
 13 38  1  0  0  0  0
 14 16  1  0  0  0  0
 14 39  1  0  0  0  0
 14 40  1  0  0  0  0
 15 41  1  0  0  0  0
 15 42  1  0  0  0  0
 16 43  1  0  0  0  0
 16 44  1  0  0  0  0
 17 19  2  0  0  0  0
 17 45  1  0  0  0  0
 18 20  2  0  0  0  0
 18 46  1  0  0  0  0
 19 20  1  0  0  0  0
 20 47  1  0  0  0  0
 21 22  2  0  0  0  0
 22 23  1  0  0  0  0
 22 48  1  0  0  0  0
 23 25  2  0  0  0  0
 23 49  1  0  0  0  0
 24 25  1  0  0  0  0
 24 50  1  0  0  0  0
 25 51  1  0  0  0  0
M  END
> <PUBCHEM_COMPOUND_CID>
155536631

> <PUBCHEM_COMPOUND_CANONICALIZED>
1

> <PUBCHEM_CACTVS_COMPLEXITY>
418

> <PUBCHEM_CACTVS_HBOND_ACCEPTOR>
4

> <PUBCHEM_CACTVS_HBOND_DONOR>
0

> <PUBCHEM_CACTVS_ROTATABLE_BOND>
4

> <PUBCHEM_CACTVS_SUBSKEYS>
AAADceB7AQAAAAAAAAAAAAAAAAAAAYAAAAA8QAAABYAAAGABwAAAHQAAAAAADQDBGgw9sJMIEACgAjJnZACCgCkxAiAJ2CA4ZJiIYOLA2ZGUIAhogALIyCcQgMAOgAAAAAAQAAAAAAAAACAAAQAACAAAAA==

> <PUBCHEM_IUPAC_OPENEYE_NAME>
1-[2-(5-fluoroindan-2-yl)ethyl]-4-(2-pyridyl)-1,4-diazepane

> <PUBCHEM_IUPAC_CAS_NAME>
1-[2-(5-fluoro-2,3-dihydro-1H-inden-2-yl)ethyl]-4-(2-pyridinyl)-1,4-diazepane

> <PUBCHEM_IUPAC_NAME_MARKUP>
1-[2-(5-fluoro-2,3-dihydro-1<I>H</I>-inden-2-yl)ethyl]-4-pyridin-2-yl-1,4-diazepane

> <PUBCHEM_IUPAC_NAME>
1-[2-(5-fluoro-2,3-dihydro-1H-inden-2-yl)ethyl]-4-pyridin-2-yl-1,4-diazepane

> <PUBCHEM_IUPAC_SYSTEMATIC_NAME>
1-[2-(5-fluoranyl-2,3-dihydro-1H-inden-2-yl)ethyl]-4-pyridin-2-yl-1,4-diazepane

> <PUBCHEM_IUPAC_TRADITIONAL_NAME>
1-[2-(5-fluoroindan-2-yl)ethyl]-4-(2-pyridyl)-1,4-diazepane

> <PUBCHEM_IUPAC_INCHI>
InChI=1S/C21H26FN3/c22-20-6-5-18-14-17(15-19(18)16-20)7-11-24-9-3-10-25(13-12-24)21-4-1-2-8-23-21/h1-2,4-6,8,16-17H,3,7,9-15H2

> <PUBCHEM_IUPAC_INCHIKEY>
RVMUAKCKCUJBKV-UHFFFAOYSA-N

> <PUBCHEM_XLOGP3_AA>
4.2

> <PUBCHEM_EXACT_MASS>
339.21107600

> <PUBCHEM_MOLECULAR_FORMULA>
C21H26FN3

> <PUBCHEM_MOLECULAR_WEIGHT>
339.4

> <PUBCHEM_OPENEYE_CAN_SMILES>
C1CN(CCN(C1)C2=CC=CC=N2)CCC3CC4=C(C3)C=C(C=C4)F

> <PUBCHEM_OPENEYE_ISO_SMILES>
C1CN(CCN(C1)C2=CC=CC=N2)CCC3CC4=C(C3)C=C(C=C4)F

> <PUBCHEM_CACTVS_TPSA>
19.4

> <PUBCHEM_MONOISOTOPIC_WEIGHT>
339.21107600

> <PUBCHEM_TOTAL_CHARGE>
0

> <PUBCHEM_HEAVY_ATOM_COUNT>
25

> <PUBCHEM_ATOM_DEF_STEREO_COUNT>
0

> <PUBCHEM_ATOM_UDEF_STEREO_COUNT>
1

> <PUBCHEM_BOND_DEF_STEREO_COUNT>
0

> <PUBCHEM_BOND_UDEF_STEREO_COUNT>
0

> <PUBCHEM_ISOTOPIC_ATOM_COUNT>
0

> <PUBCHEM_COMPONENT_COUNT>
1

> <PUBCHEM_CACTVS_TAUTO_COUNT>
-1

> <PUBCHEM_COORDINATE_TYPE>
1
5
255

> <PUBCHEM_BONDANNOTATIONS>
10  11  8
10  17  8
11  18  8
17  19  8
18  20  8
19  20  8
21  22  8
22  23  8
23  25  8
24  25  8
4  21  8
4  24  8
5  6  3

$$$$
