155538235
  -OEChem-09292322462D

 69 73  0     1  0  0  0  0  0999 V2000
   11.9840    0.6449    0.0000 S   0  0  0  0  0  0  0  0  0  0  0  0
    4.0000    3.2391    0.0000 O   0  0  0  0  0  0  0  0  0  0  0  0
    8.5388    1.0070    0.0000 N   0  0  3  0  0  0  0  0  0  0  0  0
    5.0000    1.5070    0.0000 N   0  0  0  0  0  0  0  0  0  0  0  0
   12.7930   -0.9429    0.0000 N   0  0  0  0  0  0  0  0  0  0  0  0
   13.7440    0.3661    0.0000 N   0  0  0  0  0  0  0  0  0  0  0  0
   14.3318   -0.4429    0.0000 N   0  0  0  0  0  0  0  0  0  0  0  0
    7.0000    1.5070    0.0000 C   0  0  0  0  0  0  0  0  0  0  0  0
    7.5878    2.3160    0.0000 C   0  0  0  0  0  0  0  0  0  0  0  0
    7.5878    0.6980    0.0000 C   0  0  0  0  0  0  0  0  0  0  0  0
    6.5000    2.3730    0.0000 C   0  0  0  0  0  0  0  0  0  0  0  0
    6.5000    0.6410    0.0000 C   0  0  0  0  0  0  0  0  0  0  0  0
    8.5388    2.0070    0.0000 C   0  0  0  0  0  0  0  0  0  0  0  0
    5.5000    2.3730    0.0000 C   0  0  0  0  0  0  0  0  0  0  0  0
    5.5000    0.6410    0.0000 C   0  0  0  0  0  0  0  0  0  0  0  0
    9.3479    0.4192    0.0000 C   0  0  0  0  0  0  0  0  0  0  0  0
    4.0000    1.5070    0.0000 C   0  0  0  0  0  0  0  0  0  0  0  0
   10.2614    0.8259    0.0000 C   0  0  0  0  0  0  0  0  0  0  0  0
   11.0704    0.2382    0.0000 C   0  0  0  0  0  0  0  0  0  0  0  0
    3.5000    2.3730    0.0000 C   0  0  0  0  0  0  0  0  0  0  0  0
    3.5000    0.6410    0.0000 C   0  0  0  0  0  0  0  0  0  0  0  0
    2.5000    2.3730    0.0000 C   0  0  0  0  0  0  0  0  0  0  0  0
    2.5000    0.6410    0.0000 C   0  0  0  0  0  0  0  0  0  0  0  0
    2.0000    1.5070    0.0000 C   0  0  0  0  0  0  0  0  0  0  0  0
   12.7930    0.0571    0.0000 C   0  0  0  0  0  0  0  0  0  0  0  0
    3.5000    4.1051    0.0000 C   0  0  0  0  0  0  0  0  0  0  0  0
   13.7440   -1.2519    0.0000 C   0  0  0  0  0  0  0  0  0  0  0  0
   11.9840   -1.5307    0.0000 C   0  0  0  0  0  0  0  0  0  0  0  0
   14.0531   -2.2030    0.0000 C   0  0  0  0  0  0  0  0  0  0  0  0
   13.3839   -2.9461    0.0000 C   0  0  0  0  0  0  0  0  0  0  0  0
   15.0312   -2.4109    0.0000 C   0  0  0  0  0  0  0  0  0  0  0  0
   13.6929   -3.8972    0.0000 C   0  0  0  0  0  0  0  0  0  0  0  0
   15.3402   -3.3619    0.0000 C   0  0  0  0  0  0  0  0  0  0  0  0
   14.6711   -4.1051    0.0000 C   0  0  0  0  0  0  0  0  0  0  0  0
    7.8400    2.8824    0.0000 H   0  0  0  0  0  0  0  0  0  0  0  0
    7.0508    2.6260    0.0000 H   0  0  0  0  0  0  0  0  0  0  0  0
    7.0508    0.3880    0.0000 H   0  0  0  0  0  0  0  0  0  0  0  0
    7.8400    0.1316    0.0000 H   0  0  0  0  0  0  0  0  0  0  0  0
    7.0826    2.5851    0.0000 H   0  0  0  0  0  0  0  0  0  0  0  0
    6.3923    2.9836    0.0000 H   0  0  0  0  0  0  0  0  0  0  0  0
    6.3923    0.0304    0.0000 H   0  0  0  0  0  0  0  0  0  0  0  0
    7.0826    0.4289    0.0000 H   0  0  0  0  0  0  0  0  0  0  0  0
    9.1554    1.9422    0.0000 H   0  0  0  0  0  0  0  0  0  0  0  0
    8.6678    2.6134    0.0000 H   0  0  0  0  0  0  0  0  0  0  0  0
    5.6077    2.9836    0.0000 H   0  0  0  0  0  0  0  0  0  0  0  0
    4.9174    2.5851    0.0000 H   0  0  0  0  0  0  0  0  0  0  0  0
    4.9174    0.4289    0.0000 H   0  0  0  0  0  0  0  0  0  0  0  0
    5.6077    0.0304    0.0000 H   0  0  0  0  0  0  0  0  0  0  0  0
    8.9019   -0.0115    0.0000 H   0  0  0  0  0  0  0  0  0  0  0  0
    9.6946   -0.0948    0.0000 H   0  0  0  0  0  0  0  0  0  0  0  0
   10.7074    1.2566    0.0000 H   0  0  0  0  0  0  0  0  0  0  0  0
    9.9147    1.3400    0.0000 H   0  0  0  0  0  0  0  0  0  0  0  0
   10.6244   -0.1925    0.0000 H   0  0  0  0  0  0  0  0  0  0  0  0
   11.4171   -0.2758    0.0000 H   0  0  0  0  0  0  0  0  0  0  0  0
    3.8100    0.1040    0.0000 H   0  0  0  0  0  0  0  0  0  0  0  0
    2.1900    2.9100    0.0000 H   0  0  0  0  0  0  0  0  0  0  0  0
    2.1900    0.1040    0.0000 H   0  0  0  0  0  0  0  0  0  0  0  0
    1.3800    1.5070    0.0000 H   0  0  0  0  0  0  0  0  0  0  0  0
    4.0369    4.4151    0.0000 H   0  0  0  0  0  0  0  0  0  0  0  0
    3.1900    4.6420    0.0000 H   0  0  0  0  0  0  0  0  0  0  0  0
    2.9631    3.7951    0.0000 H   0  0  0  0  0  0  0  0  0  0  0  0
   11.6195   -1.0291    0.0000 H   0  0  0  0  0  0  0  0  0  0  0  0
   11.4824   -1.8951    0.0000 H   0  0  0  0  0  0  0  0  0  0  0  0
   12.3484   -2.0323    0.0000 H   0  0  0  0  0  0  0  0  0  0  0  0
   12.7775   -2.8172    0.0000 H   0  0  0  0  0  0  0  0  0  0  0  0
   15.4461   -1.9501    0.0000 H   0  0  0  0  0  0  0  0  0  0  0  0
   13.2781   -4.3579    0.0000 H   0  0  0  0  0  0  0  0  0  0  0  0
   15.9467   -3.4908    0.0000 H   0  0  0  0  0  0  0  0  0  0  0  0
   14.8627   -4.6947    0.0000 H   0  0  0  0  0  0  0  0  0  0  0  0
  1 19  1  0  0  0  0
  1 25  1  0  0  0  0
  2 20  1  0  0  0  0
  2 26  1  0  0  0  0
  3 10  1  0  0  0  0
  3 13  1  0  0  0  0
  3 16  1  0  0  0  0
  4 14  1  0  0  0  0
  4 15  1  0  0  0  0
  4 17  1  0  0  0  0
  5 25  1  0  0  0  0
  5 27  1  0  0  0  0
  5 28  1  0  0  0  0
  6  7  1  0  0  0  0
  6 25  2  0  0  0  0
  7 27  2  0  0  0  0
  8  9  1  0  0  0  0
  8 10  1  0  0  0  0
  8 11  1  0  0  0  0
  8 12  1  0  0  0  0
  9 13  1  0  0  0  0
  9 35  1  0  0  0  0
  9 36  1  0  0  0  0
 10 37  1  0  0  0  0
 10 38  1  0  0  0  0
 11 14  1  0  0  0  0
 11 39  1  0  0  0  0
 11 40  1  0  0  0  0
 12 15  1  0  0  0  0
 12 41  1  0  0  0  0
 12 42  1  0  0  0  0
 13 43  1  0  0  0  0
 13 44  1  0  0  0  0
 14 45  1  0  0  0  0
 14 46  1  0  0  0  0
 15 47  1  0  0  0  0
 15 48  1  0  0  0  0
 16 18  1  0  0  0  0
 16 49  1  0  0  0  0
 16 50  1  0  0  0  0
 17 20  1  0  0  0  0
 17 21  2  0  0  0  0
 18 19  1  0  0  0  0
 18 51  1  0  0  0  0
 18 52  1  0  0  0  0
 19 53  1  0  0  0  0
 19 54  1  0  0  0  0
 20 22  2  0  0  0  0
 21 23  1  0  0  0  0
 21 55  1  0  0  0  0
 22 24  1  0  0  0  0
 22 56  1  0  0  0  0
 23 24  2  0  0  0  0
 23 57  1  0  0  0  0
 24 58  1  0  0  0  0
 26 59  1  0  0  0  0
 26 60  1  0  0  0  0
 26 61  1  0  0  0  0
 27 29  1  0  0  0  0
 28 62  1  0  0  0  0
 28 63  1  0  0  0  0
 28 64  1  0  0  0  0
 29 30  2  0  0  0  0
 29 31  1  0  0  0  0
 30 32  1  0  0  0  0
 30 65  1  0  0  0  0
 31 33  2  0  0  0  0
 31 66  1  0  0  0  0
 32 34  2  0  0  0  0
 32 67  1  0  0  0  0
 33 34  1  0  0  0  0
 33 68  1  0  0  0  0
 34 69  1  0  0  0  0
M  END
> <PUBCHEM_COMPOUND_CID>
155538235

> <PUBCHEM_COMPOUND_CANONICALIZED>
1

> <PUBCHEM_CACTVS_COMPLEXITY>
624

> <PUBCHEM_CACTVS_HBOND_ACCEPTOR>
6

> <PUBCHEM_CACTVS_HBOND_DONOR>
0

> <PUBCHEM_CACTVS_ROTATABLE_BOND>
8

> <PUBCHEM_CACTVS_SUBSKEYS>
AAADcfB7oABAAAAAAAAAAAAAAAAAAWLAAAA8YIAAAAAAAAAB0AAAHgQIAAAADgzF2waz1ocMFAiiAiZiZACS2AthIrAdyCAvbJiOLqLkuZuFMChkyBPY6AeQwAAPAAAAAAAAEAAAAAAAAAAgAAAAAAAAAA==

> <PUBCHEM_IUPAC_OPENEYE_NAME>
8-(2-methoxyphenyl)-2-[3-[(4-methyl-5-phenyl-1,2,4-triazol-3-yl)sulfanyl]propyl]-2,8-diazaspiro[4.5]decane

> <PUBCHEM_IUPAC_CAS_NAME>
8-(2-methoxyphenyl)-2-[3-[(4-methyl-5-phenyl-1,2,4-triazol-3-yl)thio]propyl]-2,8-diazaspiro[4.5]decane

> <PUBCHEM_IUPAC_NAME_MARKUP>
8-(2-methoxyphenyl)-2-[3-[(4-methyl-5-phenyl-1,2,4-triazol-3-yl)sulfanyl]propyl]-2,8-diazaspiro[4.5]decane

> <PUBCHEM_IUPAC_NAME>
8-(2-methoxyphenyl)-2-[3-[(4-methyl-5-phenyl-1,2,4-triazol-3-yl)sulfanyl]propyl]-2,8-diazaspiro[4.5]decane

> <PUBCHEM_IUPAC_SYSTEMATIC_NAME>
8-(2-methoxyphenyl)-2-[3-[(4-methyl-5-phenyl-1,2,4-triazol-3-yl)sulfanyl]propyl]-2,8-diazaspiro[4.5]decane

> <PUBCHEM_IUPAC_TRADITIONAL_NAME>
8-(2-methoxyphenyl)-2-[3-[(4-methyl-5-phenyl-1,2,4-triazol-3-yl)thio]propyl]-2,8-diazaspiro[4.5]decane

> <PUBCHEM_IUPAC_INCHI>
InChI=1S/C27H35N5OS/c1-30-25(22-9-4-3-5-10-22)28-29-26(30)34-20-8-16-31-17-13-27(21-31)14-18-32(19-15-27)23-11-6-7-12-24(23)33-2/h3-7,9-12H,8,13-21H2,1-2H3

> <PUBCHEM_IUPAC_INCHIKEY>
OZCCDFXOCARGSE-UHFFFAOYSA-N

> <PUBCHEM_XLOGP3_AA>
4.9

> <PUBCHEM_EXACT_MASS>
477.25623193

> <PUBCHEM_MOLECULAR_FORMULA>
C27H35N5OS

> <PUBCHEM_MOLECULAR_WEIGHT>
477.7

> <PUBCHEM_OPENEYE_CAN_SMILES>
CN1C(=NN=C1SCCCN2CCC3(C2)CCN(CC3)C4=CC=CC=C4OC)C5=CC=CC=C5

> <PUBCHEM_OPENEYE_ISO_SMILES>
CN1C(=NN=C1SCCCN2CCC3(C2)CCN(CC3)C4=CC=CC=C4OC)C5=CC=CC=C5

> <PUBCHEM_CACTVS_TPSA>
71.7

> <PUBCHEM_MONOISOTOPIC_WEIGHT>
477.25623193

> <PUBCHEM_TOTAL_CHARGE>
0

> <PUBCHEM_HEAVY_ATOM_COUNT>
34

> <PUBCHEM_ATOM_DEF_STEREO_COUNT>
0

> <PUBCHEM_ATOM_UDEF_STEREO_COUNT>
0

> <PUBCHEM_BOND_DEF_STEREO_COUNT>
0

> <PUBCHEM_BOND_UDEF_STEREO_COUNT>
0

> <PUBCHEM_ISOTOPIC_ATOM_COUNT>
0

> <PUBCHEM_COMPONENT_COUNT>
1

> <PUBCHEM_CACTVS_TAUTO_COUNT>
-1

> <PUBCHEM_COORDINATE_TYPE>
1
5
255

> <PUBCHEM_BONDANNOTATIONS>
17  20  8
17  21  8
20  22  8
21  23  8
22  24  8
23  24  8
29  30  8
29  31  8
30  32  8
31  33  8
32  34  8
33  34  8
5  25  8
5  27  8
6  25  8
6  7  8
7  27  8

$$$$
