44454167
  -OEChem-09292322492D

 70 75  0     1  0  0  0  0  0999 V2000
    9.7062    1.1631    0.0000 S   0  0  0  0  0  0  0  0  0  0  0  0
    4.9887   -5.1532    0.0000 O   0  0  0  0  0  0  0  0  0  0  0  0
    2.5000   -6.1223    0.0000 O   0  0  0  0  0  0  0  0  0  0  0  0
    6.7062   -0.5690    0.0000 N   0  0  3  0  0  0  0  0  0  0  0  0
    3.5949   -4.3485    0.0000 N   0  0  0  0  0  0  0  0  0  0  0  0
    9.7995    2.9426    0.0000 N   0  0  0  0  0  0  0  0  0  0  0  0
   11.2008    2.1336    0.0000 N   0  0  0  0  0  0  0  0  0  0  0  0
   11.4087    3.1118    0.0000 N   0  0  0  0  0  0  0  0  0  0  0  0
   11.9758    6.8138    0.0000 N   0  0  0  0  0  0  0  0  0  0  0  0
    7.2598   -1.3786    0.0000 C   0  0  0  0  0  0  0  0  0  0  0  0
    5.7283   -0.4944    0.0000 C   0  0  0  0  0  0  0  0  0  0  0  0
    6.9745   -2.3170    0.0000 C   0  0  0  0  0  0  0  0  0  0  0  0
    5.0583   -1.2106    0.0000 C   0  0  0  0  0  0  0  0  0  0  0  0
    6.0640   -2.6814    0.0000 C   0  0  0  0  0  0  0  0  0  0  0  0
    5.1979   -2.1814    0.0000 C   0  0  0  0  0  0  0  0  0  0  0  0
    7.2062    0.2970    0.0000 C   0  0  0  0  0  0  0  0  0  0  0  0
    8.2062    0.2970    0.0000 C   0  0  0  0  0  0  0  0  0  0  0  0
    6.0640   -3.6814    0.0000 C   0  0  0  0  0  0  0  0  0  0  0  0
    4.3319   -2.6814    0.0000 C   0  0  0  0  0  0  0  0  0  0  0  0
    5.1979   -4.1814    0.0000 C   0  0  0  0  0  0  0  0  0  0  0  0
    4.3319   -3.6814    0.0000 C   0  0  0  0  0  0  0  0  0  0  0  0
    8.7062    1.1631    0.0000 C   0  0  0  0  0  0  0  0  0  0  0  0
    4.0000   -5.2563    0.0000 C   0  0  0  0  0  0  0  0  0  0  0  0
    3.5000   -6.1223    0.0000 C   0  0  0  0  0  0  0  0  0  0  0  0
   10.2062    2.0291    0.0000 C   0  0  0  0  0  0  0  0  0  0  0  0
   10.5426    3.6118    0.0000 C   0  0  0  0  0  0  0  0  0  0  0  0
   10.4381    4.6063    0.0000 C   0  0  0  0  0  0  0  0  0  0  0  0
   11.2471    5.1941    0.0000 C   0  0  0  0  0  0  0  0  0  0  0  0
    8.8214    3.1506    0.0000 C   0  0  0  0  0  0  0  0  0  0  0  0
   11.1426    6.1886    0.0000 C   0  0  0  0  0  0  0  0  0  0  0  0
    9.5246    5.0130    0.0000 C   0  0  0  0  0  0  0  0  0  0  0  0
   12.1921    4.7558    0.0000 C   0  0  0  0  0  0  0  0  0  0  0  0
   10.2291    6.5953    0.0000 C   0  0  0  0  0  0  0  0  0  0  0  0
    9.4200    6.0076    0.0000 C   0  0  0  0  0  0  0  0  0  0  0  0
   13.0395    5.3615    0.0000 C   0  0  0  0  0  0  0  0  0  0  0  0
   12.9306    6.3975    0.0000 C   0  0  0  0  0  0  0  0  0  0  0  0
    2.0000   -6.9884    0.0000 C   0  0  0  0  0  0  0  0  0  0  0  0
   13.7373    6.9884    0.0000 C   0  0  0  0  0  0  0  0  0  0  0  0
    7.7977   -1.6869    0.0000 H   0  0  0  0  0  0  0  0  0  0  0  0
    7.6805   -0.9232    0.0000 H   0  0  0  0  0  0  0  0  0  0  0  0
    5.9124    0.0977    0.0000 H   0  0  0  0  0  0  0  0  0  0  0  0
    5.1923   -0.1827    0.0000 H   0  0  0  0  0  0  0  0  0  0  0  0
    7.0705   -2.9295    0.0000 H   0  0  0  0  0  0  0  0  0  0  0  0
    7.5930   -2.3603    0.0000 H   0  0  0  0  0  0  0  0  0  0  0  0
    4.7116   -0.6967    0.0000 H   0  0  0  0  0  0  0  0  0  0  0  0
    4.4798   -1.4338    0.0000 H   0  0  0  0  0  0  0  0  0  0  0  0
    7.3139    0.9076    0.0000 H   0  0  0  0  0  0  0  0  0  0  0  0
    6.6236    0.5091    0.0000 H   0  0  0  0  0  0  0  0  0  0  0  0
    8.0986   -0.3135    0.0000 H   0  0  0  0  0  0  0  0  0  0  0  0
    8.7888    0.0850    0.0000 H   0  0  0  0  0  0  0  0  0  0  0  0
    6.6009   -3.9914    0.0000 H   0  0  0  0  0  0  0  0  0  0  0  0
    3.7950   -2.3714    0.0000 H   0  0  0  0  0  0  0  0  0  0  0  0
    8.8139    1.7737    0.0000 H   0  0  0  0  0  0  0  0  0  0  0  0
    8.1236    1.3751    0.0000 H   0  0  0  0  0  0  0  0  0  0  0  0
    3.3923   -6.7329    0.0000 H   0  0  0  0  0  0  0  0  0  0  0  0
    4.0826   -6.3344    0.0000 H   0  0  0  0  0  0  0  0  0  0  0  0
    8.9502    3.7570    0.0000 H   0  0  0  0  0  0  0  0  0  0  0  0
    8.2149    3.2795    0.0000 H   0  0  0  0  0  0  0  0  0  0  0  0
    8.6924    2.5441    0.0000 H   0  0  0  0  0  0  0  0  0  0  0  0
    9.0230    4.6486    0.0000 H   0  0  0  0  0  0  0  0  0  0  0  0
   12.2497    4.1385    0.0000 H   0  0  0  0  0  0  0  0  0  0  0  0
   10.1642    7.2120    0.0000 H   0  0  0  0  0  0  0  0  0  0  0  0
    8.8536    6.2597    0.0000 H   0  0  0  0  0  0  0  0  0  0  0  0
   13.6049    5.1072    0.0000 H   0  0  0  0  0  0  0  0  0  0  0  0
    1.4631   -6.6784    0.0000 H   0  0  0  0  0  0  0  0  0  0  0  0
    1.6900   -7.5253    0.0000 H   0  0  0  0  0  0  0  0  0  0  0  0
    2.5369   -7.2984    0.0000 H   0  0  0  0  0  0  0  0  0  0  0  0
   14.1037    6.4882    0.0000 H   0  0  0  0  0  0  0  0  0  0  0  0
   14.2375    7.3547    0.0000 H   0  0  0  0  0  0  0  0  0  0  0  0
   13.3710    7.4885    0.0000 H   0  0  0  0  0  0  0  0  0  0  0  0
  1 22  1  0  0  0  0
  1 25  1  0  0  0  0
  2 20  1  0  0  0  0
  2 23  1  0  0  0  0
  3 24  1  0  0  0  0
  3 37  1  0  0  0  0
  4 10  1  0  0  0  0
  4 11  1  0  0  0  0
  4 16  1  0  0  0  0
  5 21  1  0  0  0  0
  5 23  2  0  0  0  0
  6 25  1  0  0  0  0
  6 26  1  0  0  0  0
  6 29  1  0  0  0  0
  7  8  1  0  0  0  0
  7 25  2  0  0  0  0
  8 26  2  0  0  0  0
  9 30  1  0  0  0  0
  9 36  2  0  0  0  0
 10 12  1  0  0  0  0
 10 39  1  0  0  0  0
 10 40  1  0  0  0  0
 11 13  1  0  0  0  0
 11 41  1  0  0  0  0
 11 42  1  0  0  0  0
 12 14  1  0  0  0  0
 12 43  1  0  0  0  0
 12 44  1  0  0  0  0
 13 15  1  0  0  0  0
 13 45  1  0  0  0  0
 13 46  1  0  0  0  0
 14 15  1  0  0  0  0
 14 18  2  0  0  0  0
 15 19  2  0  0  0  0
 16 17  1  0  0  0  0
 16 47  1  0  0  0  0
 16 48  1  0  0  0  0
 17 22  1  0  0  0  0
 17 49  1  0  0  0  0
 17 50  1  0  0  0  0
 18 20  1  0  0  0  0
 18 51  1  0  0  0  0
 19 21  1  0  0  0  0
 19 52  1  0  0  0  0
 20 21  2  0  0  0  0
 22 53  1  0  0  0  0
 22 54  1  0  0  0  0
 23 24  1  0  0  0  0
 24 55  1  0  0  0  0
 24 56  1  0  0  0  0
 26 27  1  0  0  0  0
 27 28  2  0  0  0  0
 27 31  1  0  0  0  0
 28 30  1  0  0  0  0
 28 32  1  0  0  0  0
 29 57  1  0  0  0  0
 29 58  1  0  0  0  0
 29 59  1  0  0  0  0
 30 33  2  0  0  0  0
 31 34  2  0  0  0  0
 31 60  1  0  0  0  0
 32 35  2  0  0  0  0
 32 61  1  0  0  0  0
 33 34  1  0  0  0  0
 33 62  1  0  0  0  0
 34 63  1  0  0  0  0
 35 36  1  0  0  0  0
 35 64  1  0  0  0  0
 36 38  1  0  0  0  0
 37 65  1  0  0  0  0
 37 66  1  0  0  0  0
 37 67  1  0  0  0  0
 38 68  1  0  0  0  0
 38 69  1  0  0  0  0
 38 70  1  0  0  0  0
M  END
> <PUBCHEM_COMPOUND_CID>
44454167

> <PUBCHEM_COMPOUND_CANONICALIZED>
1

> <PUBCHEM_CACTVS_COMPLEXITY>
765

> <PUBCHEM_CACTVS_HBOND_ACCEPTOR>
8

> <PUBCHEM_CACTVS_HBOND_DONOR>
0

> <PUBCHEM_CACTVS_ROTATABLE_BOND>
8

> <PUBCHEM_CACTVS_SUBSKEYS>
AAADcfB7sABAAAAAAAAAAAAAAAAAAWLAAAA8YIAABYAAAFix/gAAHgQIAAAADAzl3waz1vcMFEiqA6dydAaS2CtvYrAd2CH/bNiPLvLkvb+POSjkzBPa6YeY2fKOqAABQAASEABQAAKAACQgAAAAAAAAAA==

> <PUBCHEM_IUPAC_OPENEYE_NAME>
2-(methoxymethyl)-7-[3-[[4-methyl-5-(2-methyl-5-quinolyl)-1,2,4-triazol-3-yl]sulfanyl]propyl]-5,6,8,9-tetrahydrooxazolo[4,5-h][3]benzazepine

> <PUBCHEM_IUPAC_CAS_NAME>
2-(methoxymethyl)-7-[3-[[4-methyl-5-(2-methyl-5-quinolinyl)-1,2,4-triazol-3-yl]thio]propyl]-5,6,8,9-tetrahydrooxazolo[4,5-h][3]benzazepine

> <PUBCHEM_IUPAC_NAME_MARKUP>
2-(methoxymethyl)-7-[3-[[4-methyl-5-(2-methylquinolin-5-yl)-1,2,4-triazol-3-yl]sulfanyl]propyl]-5,6,8,9-tetrahydro-[1,3]oxazolo[4,5-h][3]benzazepine

> <PUBCHEM_IUPAC_NAME>
2-(methoxymethyl)-7-[3-[[4-methyl-5-(2-methylquinolin-5-yl)-1,2,4-triazol-3-yl]sulfanyl]propyl]-5,6,8,9-tetrahydro-[1,3]oxazolo[4,5-h][3]benzazepine

> <PUBCHEM_IUPAC_SYSTEMATIC_NAME>
2-(methoxymethyl)-7-[3-[[4-methyl-5-(2-methylquinolin-5-yl)-1,2,4-triazol-3-yl]sulfanyl]propyl]-5,6,8,9-tetrahydro-[1,3]oxazolo[4,5-h][3]benzazepine

> <PUBCHEM_IUPAC_TRADITIONAL_NAME>
2-(methoxymethyl)-7-[3-[[4-methyl-5-(2-methyl-5-quinolyl)-1,2,4-triazol-3-yl]thio]propyl]-5,6,8,9-tetrahydrooxazolo[4,5-h][3]benzazepine

> <PUBCHEM_IUPAC_INCHI>
InChI=1S/C29H32N6O2S/c1-19-8-9-22-23(6-4-7-24(22)30-19)28-32-33-29(34(28)2)38-15-5-12-35-13-10-20-16-25-26(17-21(20)11-14-35)37-27(31-25)18-36-3/h4,6-9,16-17H,5,10-15,18H2,1-3H3

> <PUBCHEM_IUPAC_INCHIKEY>
TZVRVTZSSPWUGF-UHFFFAOYSA-N

> <PUBCHEM_XLOGP3_AA>
4.5

> <PUBCHEM_EXACT_MASS>
528.23074546

> <PUBCHEM_MOLECULAR_FORMULA>
C29H32N6O2S

> <PUBCHEM_MOLECULAR_WEIGHT>
528.7

> <PUBCHEM_OPENEYE_CAN_SMILES>
CC1=NC2=CC=CC(=C2C=C1)C3=NN=C(N3C)SCCCN4CCC5=CC6=C(C=C5CC4)OC(=N6)COC

> <PUBCHEM_OPENEYE_ISO_SMILES>
CC1=NC2=CC=CC(=C2C=C1)C3=NN=C(N3C)SCCCN4CCC5=CC6=C(C=C5CC4)OC(=N6)COC

> <PUBCHEM_CACTVS_TPSA>
107

> <PUBCHEM_MONOISOTOPIC_WEIGHT>
528.23074546

> <PUBCHEM_TOTAL_CHARGE>
0

> <PUBCHEM_HEAVY_ATOM_COUNT>
38

> <PUBCHEM_ATOM_DEF_STEREO_COUNT>
0

> <PUBCHEM_ATOM_UDEF_STEREO_COUNT>
0

> <PUBCHEM_BOND_DEF_STEREO_COUNT>
0

> <PUBCHEM_BOND_UDEF_STEREO_COUNT>
0

> <PUBCHEM_ISOTOPIC_ATOM_COUNT>
0

> <PUBCHEM_COMPONENT_COUNT>
1

> <PUBCHEM_CACTVS_TAUTO_COUNT>
-1

> <PUBCHEM_COORDINATE_TYPE>
1
5
255

> <PUBCHEM_BONDANNOTATIONS>
14  15  8
14  18  8
15  19  8
18  20  8
19  21  8
2  20  8
2  23  8
20  21  8
27  28  8
27  31  8
28  30  8
28  32  8
30  33  8
31  34  8
32  35  8
33  34  8
35  36  8
5  21  8
5  23  8
6  25  8
6  26  8
7  25  8
7  8  8
8  26  8
9  30  8
9  36  8

$$$$
