136020067
  -OEChem-09292322052D

150157  0     0  0  0  0  0  0999 V2000
   12.0291  -15.2439    0.0000 Cl  0  0  0  0  0  0  0  0  0  0  0  0
    2.0000   15.2439    0.0000 Cl  0  0  0  0  0  0  0  0  0  0  0  0
    5.2179   -7.2472    0.0000 O   0  0  0  0  0  0  0  0  0  0  0  0
    8.8112    7.2472    0.0000 O   0  0  0  0  0  0  0  0  0  0  0  0
    6.3901  -11.6773    0.0000 N   0  0  0  0  0  0  0  0  0  0  0  0
    7.6390   11.6773    0.0000 N   0  0  0  0  0  0  0  0  0  0  0  0
    7.2578  -13.4793    0.0000 N   0  0  0  0  0  0  0  0  0  0  0  0
    6.7713   13.4793    0.0000 N   0  0  0  0  0  0  0  0  0  0  0  0
    6.6490   -8.2229    0.0000 N   0  0  0  0  0  0  0  0  0  0  0  0
    7.3802    8.2229    0.0000 N   0  0  0  0  0  0  0  0  0  0  0  0
    8.6917  -14.3803    0.0000 N   0  0  0  0  0  0  0  0  0  0  0  0
    5.3374   14.3803    0.0000 N   0  0  0  0  0  0  0  0  0  0  0  0
    8.1917  -16.5709    0.0000 N   0  0  0  0  0  0  0  0  0  0  0  0
    5.8374   16.5709    0.0000 N   0  0  0  0  0  0  0  0  0  0  0  0
    5.8268  -12.5036    0.0000 C   0  0  0  0  0  0  0  0  0  0  0  0
    7.3873  -11.7521    0.0000 C   0  0  0  0  0  0  0  0  0  0  0  0
    8.2024   12.5036    0.0000 C   0  0  0  0  0  0  0  0  0  0  0  0
    6.6418   11.7521    0.0000 C   0  0  0  0  0  0  0  0  0  0  0  0
    6.2606  -13.4045    0.0000 C   0  0  0  0  0  0  0  0  0  0  0  0
    7.8212  -12.6530    0.0000 C   0  0  0  0  0  0  0  0  0  0  0  0
    7.7685   13.4045    0.0000 C   0  0  0  0  0  0  0  0  0  0  0  0
    6.2080   12.6530    0.0000 C   0  0  0  0  0  0  0  0  0  0  0  0
    5.9562  -10.7764    0.0000 C   0  0  0  0  0  0  0  0  0  0  0  0
    8.0729   10.7764    0.0000 C   0  0  0  0  0  0  0  0  0  0  0  0
    6.5195   -9.9501    0.0000 C   0  0  0  0  0  0  0  0  0  0  0  0
    7.5096    9.9501    0.0000 C   0  0  0  0  0  0  0  0  0  0  0  0
    7.6917  -14.3802    0.0000 C   0  0  0  0  0  0  0  0  0  0  0  0
    6.3374   14.3802    0.0000 C   0  0  0  0  0  0  0  0  0  0  0  0
    6.0857   -9.0491    0.0000 C   0  0  0  0  0  0  0  0  0  0  0  0
    7.9435    9.0491    0.0000 C   0  0  0  0  0  0  0  0  0  0  0  0
    6.7329   -0.4131    0.0000 C   0  0  0  0  0  0  0  0  0  0  0  0
    7.2962    0.4131    0.0000 C   0  0  0  0  0  0  0  0  0  0  0  0
    7.0682  -15.1621    0.0000 C   0  0  0  0  0  0  0  0  0  0  0  0
    6.9609   15.1621    0.0000 C   0  0  0  0  0  0  0  0  0  0  0  0
    7.1668   -1.3141    0.0000 C   0  0  0  0  0  0  0  0  0  0  0  0
    6.8624    1.3141    0.0000 C   0  0  0  0  0  0  0  0  0  0  0  0
    6.6035   -2.1403    0.0000 C   0  0  0  0  0  0  0  0  0  0  0  0
    7.4257    2.1403    0.0000 C   0  0  0  0  0  0  0  0  0  0  0  0
    7.0373   -3.0413    0.0000 C   0  0  0  0  0  0  0  0  0  0  0  0
    6.9918    3.0413    0.0000 C   0  0  0  0  0  0  0  0  0  0  0  0
    6.4740   -3.8675    0.0000 C   0  0  0  0  0  0  0  0  0  0  0  0
    7.5551    3.8675    0.0000 C   0  0  0  0  0  0  0  0  0  0  0  0
    6.9079   -4.7685    0.0000 C   0  0  0  0  0  0  0  0  0  0  0  0
    7.1213    4.7685    0.0000 C   0  0  0  0  0  0  0  0  0  0  0  0
    6.3446   -5.5947    0.0000 C   0  0  0  0  0  0  0  0  0  0  0  0
    7.6846    5.5947    0.0000 C   0  0  0  0  0  0  0  0  0  0  0  0
    7.2907  -16.1370    0.0000 C   0  0  0  0  0  0  0  0  0  0  0  0
    6.7384   16.1370    0.0000 C   0  0  0  0  0  0  0  0  0  0  0  0
    6.7784   -6.4957    0.0000 C   0  0  0  0  0  0  0  0  0  0  0  0
    7.2507    6.4957    0.0000 C   0  0  0  0  0  0  0  0  0  0  0  0
    6.2151   -7.3219    0.0000 C   0  0  0  0  0  0  0  0  0  0  0  0
    7.8140    7.3219    0.0000 C   0  0  0  0  0  0  0  0  0  0  0  0
    9.3152  -15.1621    0.0000 C   0  0  0  0  0  0  0  0  0  0  0  0
    4.7139   15.1621    0.0000 C   0  0  0  0  0  0  0  0  0  0  0  0
    6.0777  -14.8397    0.0000 C   0  0  0  0  0  0  0  0  0  0  0  0
    7.9514   14.8397    0.0000 C   0  0  0  0  0  0  0  0  0  0  0  0
    9.0927  -16.1370    0.0000 C   0  0  0  0  0  0  0  0  0  0  0  0
    4.9365   16.1370    0.0000 C   0  0  0  0  0  0  0  0  0  0  0  0
    6.5382  -16.8572    0.0000 C   0  0  0  0  0  0  0  0  0  0  0  0
    7.4910   16.8572    0.0000 C   0  0  0  0  0  0  0  0  0  0  0  0
    5.3087  -15.5423    0.0000 C   0  0  0  0  0  0  0  0  0  0  0  0
    8.7204   15.5423    0.0000 C   0  0  0  0  0  0  0  0  0  0  0  0
    5.5405  -16.5578    0.0000 C   0  0  0  0  0  0  0  0  0  0  0  0
    8.4887   16.5578    0.0000 C   0  0  0  0  0  0  0  0  0  0  0  0
   10.3057  -14.8398    0.0000 C   0  0  0  0  0  0  0  0  0  0  0  0
    3.7234   14.8398    0.0000 C   0  0  0  0  0  0  0  0  0  0  0  0
    9.8452  -16.8572    0.0000 C   0  0  0  0  0  0  0  0  0  0  0  0
    4.1839   16.8572    0.0000 C   0  0  0  0  0  0  0  0  0  0  0  0
   11.0747  -15.5423    0.0000 C   0  0  0  0  0  0  0  0  0  0  0  0
    2.9544   15.5423    0.0000 C   0  0  0  0  0  0  0  0  0  0  0  0
   10.8429  -16.5579    0.0000 C   0  0  0  0  0  0  0  0  0  0  0  0
    3.1862   16.5579    0.0000 C   0  0  0  0  0  0  0  0  0  0  0  0
    5.3829  -12.0707    0.0000 H   0  0  0  0  0  0  0  0  0  0  0  0
    5.3234  -12.8655    0.0000 H   0  0  0  0  0  0  0  0  0  0  0  0
    7.9841  -11.5842    0.0000 H   0  0  0  0  0  0  0  0  0  0  0  0
    7.3256  -11.1351    0.0000 H   0  0  0  0  0  0  0  0  0  0  0  0
    8.6462   12.0707    0.0000 H   0  0  0  0  0  0  0  0  0  0  0  0
    8.7058   12.8655    0.0000 H   0  0  0  0  0  0  0  0  0  0  0  0
    6.0450   11.5842    0.0000 H   0  0  0  0  0  0  0  0  0  0  0  0
    6.7036   11.1351    0.0000 H   0  0  0  0  0  0  0  0  0  0  0  0
    5.6638  -13.5725    0.0000 H   0  0  0  0  0  0  0  0  0  0  0  0
    6.3224  -14.0215    0.0000 H   0  0  0  0  0  0  0  0  0  0  0  0
    8.2650  -13.0859    0.0000 H   0  0  0  0  0  0  0  0  0  0  0  0
    8.3246  -12.2911    0.0000 H   0  0  0  0  0  0  0  0  0  0  0  0
    8.3653   13.5725    0.0000 H   0  0  0  0  0  0  0  0  0  0  0  0
    7.7068   14.0215    0.0000 H   0  0  0  0  0  0  0  0  0  0  0  0
    5.7641   13.0859    0.0000 H   0  0  0  0  0  0  0  0  0  0  0  0
    5.7046   12.2911    0.0000 H   0  0  0  0  0  0  0  0  0  0  0  0
    5.5124  -10.3434    0.0000 H   0  0  0  0  0  0  0  0  0  0  0  0
    5.4528  -11.1383    0.0000 H   0  0  0  0  0  0  0  0  0  0  0  0
    8.5168   10.3434    0.0000 H   0  0  0  0  0  0  0  0  0  0  0  0
    8.5763   11.1383    0.0000 H   0  0  0  0  0  0  0  0  0  0  0  0
    6.9634  -10.3830    0.0000 H   0  0  0  0  0  0  0  0  0  0  0  0
    7.0229   -9.5882    0.0000 H   0  0  0  0  0  0  0  0  0  0  0  0
    7.0658   10.3830    0.0000 H   0  0  0  0  0  0  0  0  0  0  0  0
    7.0062    9.5882    0.0000 H   0  0  0  0  0  0  0  0  0  0  0  0
    5.6418   -8.6162    0.0000 H   0  0  0  0  0  0  0  0  0  0  0  0
    5.5823   -9.4111    0.0000 H   0  0  0  0  0  0  0  0  0  0  0  0
    8.3873    8.6162    0.0000 H   0  0  0  0  0  0  0  0  0  0  0  0
    8.4469    9.4111    0.0000 H   0  0  0  0  0  0  0  0  0  0  0  0
    6.2891    0.0198    0.0000 H   0  0  0  0  0  0  0  0  0  0  0  0
    6.2295   -0.7750    0.0000 H   0  0  0  0  0  0  0  0  0  0  0  0
    7.7401   -0.0198    0.0000 H   0  0  0  0  0  0  0  0  0  0  0  0
    7.7996    0.7750    0.0000 H   0  0  0  0  0  0  0  0  0  0  0  0
    7.6106   -1.7470    0.0000 H   0  0  0  0  0  0  0  0  0  0  0  0
    7.6702   -0.9522    0.0000 H   0  0  0  0  0  0  0  0  0  0  0  0
    6.4185    1.7470    0.0000 H   0  0  0  0  0  0  0  0  0  0  0  0
    6.3590    0.9522    0.0000 H   0  0  0  0  0  0  0  0  0  0  0  0
    6.1596   -1.7074    0.0000 H   0  0  0  0  0  0  0  0  0  0  0  0
    6.1001   -2.5022    0.0000 H   0  0  0  0  0  0  0  0  0  0  0  0
    7.8695    1.7074    0.0000 H   0  0  0  0  0  0  0  0  0  0  0  0
    7.9291    2.5022    0.0000 H   0  0  0  0  0  0  0  0  0  0  0  0
    7.4812   -3.4742    0.0000 H   0  0  0  0  0  0  0  0  0  0  0  0
    7.5407   -2.6794    0.0000 H   0  0  0  0  0  0  0  0  0  0  0  0
    6.5480    3.4742    0.0000 H   0  0  0  0  0  0  0  0  0  0  0  0
    6.4884    2.6794    0.0000 H   0  0  0  0  0  0  0  0  0  0  0  0
    6.0302   -3.4346    0.0000 H   0  0  0  0  0  0  0  0  0  0  0  0
    5.9706   -4.2294    0.0000 H   0  0  0  0  0  0  0  0  0  0  0  0
    7.9990    3.4346    0.0000 H   0  0  0  0  0  0  0  0  0  0  0  0
    8.0585    4.2294    0.0000 H   0  0  0  0  0  0  0  0  0  0  0  0
    7.3517   -5.2014    0.0000 H   0  0  0  0  0  0  0  0  0  0  0  0
    7.4113   -4.4066    0.0000 H   0  0  0  0  0  0  0  0  0  0  0  0
    6.6774    5.2014    0.0000 H   0  0  0  0  0  0  0  0  0  0  0  0
    6.6178    4.4066    0.0000 H   0  0  0  0  0  0  0  0  0  0  0  0
    5.9007   -5.1618    0.0000 H   0  0  0  0  0  0  0  0  0  0  0  0
    5.8412   -5.9567    0.0000 H   0  0  0  0  0  0  0  0  0  0  0  0
    8.1284    5.1618    0.0000 H   0  0  0  0  0  0  0  0  0  0  0  0
    8.1880    5.9567    0.0000 H   0  0  0  0  0  0  0  0  0  0  0  0
    7.2673   -8.2692    0.0000 H   0  0  0  0  0  0  0  0  0  0  0  0
    6.7619    8.2692    0.0000 H   0  0  0  0  0  0  0  0  0  0  0  0
    7.2223   -6.9286    0.0000 H   0  0  0  0  0  0  0  0  0  0  0  0
    7.2818   -6.1338    0.0000 H   0  0  0  0  0  0  0  0  0  0  0  0
    6.8069    6.9286    0.0000 H   0  0  0  0  0  0  0  0  0  0  0  0
    6.7473    6.1338    0.0000 H   0  0  0  0  0  0  0  0  0  0  0  0
    5.9468  -14.2337    0.0000 H   0  0  0  0  0  0  0  0  0  0  0  0
    8.0824   14.2337    0.0000 H   0  0  0  0  0  0  0  0  0  0  0  0
    8.1917  -17.1909    0.0000 H   0  0  0  0  0  0  0  0  0  0  0  0
    5.8374   17.1909    0.0000 H   0  0  0  0  0  0  0  0  0  0  0  0
    6.6831  -17.4600    0.0000 H   0  0  0  0  0  0  0  0  0  0  0  0
    7.3460   17.4600    0.0000 H   0  0  0  0  0  0  0  0  0  0  0  0
    4.7170  -15.3573    0.0000 H   0  0  0  0  0  0  0  0  0  0  0  0
    9.3122   15.3573    0.0000 H   0  0  0  0  0  0  0  0  0  0  0  0
    5.0876  -16.9813    0.0000 H   0  0  0  0  0  0  0  0  0  0  0  0
    8.9415   16.9813    0.0000 H   0  0  0  0  0  0  0  0  0  0  0  0
   10.4367  -14.2338    0.0000 H   0  0  0  0  0  0  0  0  0  0  0  0
    3.5925   14.2338    0.0000 H   0  0  0  0  0  0  0  0  0  0  0  0
    9.7003  -17.4600    0.0000 H   0  0  0  0  0  0  0  0  0  0  0  0
    4.3289   17.4600    0.0000 H   0  0  0  0  0  0  0  0  0  0  0  0
   11.2958  -16.9813    0.0000 H   0  0  0  0  0  0  0  0  0  0  0  0
    2.7334   16.9813    0.0000 H   0  0  0  0  0  0  0  0  0  0  0  0
  1 69  1  0  0  0  0
  2 70  1  0  0  0  0
  3 51  2  0  0  0  0
  4 52  2  0  0  0  0
  5 15  1  0  0  0  0
  5 16  1  0  0  0  0
  5 23  1  0  0  0  0
  6 17  1  0  0  0  0
  6 18  1  0  0  0  0
  6 24  1  0  0  0  0
  7 19  1  0  0  0  0
  7 20  1  0  0  0  0
  7 27  1  0  0  0  0
  8 21  1  0  0  0  0
  8 22  1  0  0  0  0
  8 28  1  0  0  0  0
  9 29  1  0  0  0  0
  9 51  1  0  0  0  0
  9129  1  0  0  0  0
 10 30  1  0  0  0  0
 10 52  1  0  0  0  0
 10130  1  0  0  0  0
 11 27  2  0  0  0  0
 11 53  1  0  0  0  0
 12 28  2  0  0  0  0
 12 54  1  0  0  0  0
 13 47  1  0  0  0  0
 13 57  1  0  0  0  0
 13137  1  0  0  0  0
 14 48  1  0  0  0  0
 14 58  1  0  0  0  0
 14138  1  0  0  0  0
 15 19  1  0  0  0  0
 15 73  1  0  0  0  0
 15 74  1  0  0  0  0
 16 20  1  0  0  0  0
 16 75  1  0  0  0  0
 16 76  1  0  0  0  0
 17 21  1  0  0  0  0
 17 77  1  0  0  0  0
 17 78  1  0  0  0  0
 18 22  1  0  0  0  0
 18 79  1  0  0  0  0
 18 80  1  0  0  0  0
 19 81  1  0  0  0  0
 19 82  1  0  0  0  0
 20 83  1  0  0  0  0
 20 84  1  0  0  0  0
 21 85  1  0  0  0  0
 21 86  1  0  0  0  0
 22 87  1  0  0  0  0
 22 88  1  0  0  0  0
 23 25  1  0  0  0  0
 23 89  1  0  0  0  0
 23 90  1  0  0  0  0
 24 26  1  0  0  0  0
 24 91  1  0  0  0  0
 24 92  1  0  0  0  0
 25 29  1  0  0  0  0
 25 93  1  0  0  0  0
 25 94  1  0  0  0  0
 26 30  1  0  0  0  0
 26 95  1  0  0  0  0
 26 96  1  0  0  0  0
 27 33  1  0  0  0  0
 28 34  1  0  0  0  0
 29 97  1  0  0  0  0
 29 98  1  0  0  0  0
 30 99  1  0  0  0  0
 30100  1  0  0  0  0
 31 32  1  0  0  0  0
 31 35  1  0  0  0  0
 31101  1  0  0  0  0
 31102  1  0  0  0  0
 32 36  1  0  0  0  0
 32103  1  0  0  0  0
 32104  1  0  0  0  0
 33 47  1  0  0  0  0
 33 55  2  0  0  0  0
 34 48  1  0  0  0  0
 34 56  2  0  0  0  0
 35 37  1  0  0  0  0
 35105  1  0  0  0  0
 35106  1  0  0  0  0
 36 38  1  0  0  0  0
 36107  1  0  0  0  0
 36108  1  0  0  0  0
 37 39  1  0  0  0  0
 37109  1  0  0  0  0
 37110  1  0  0  0  0
 38 40  1  0  0  0  0
 38111  1  0  0  0  0
 38112  1  0  0  0  0
 39 41  1  0  0  0  0
 39113  1  0  0  0  0
 39114  1  0  0  0  0
 40 42  1  0  0  0  0
 40115  1  0  0  0  0
 40116  1  0  0  0  0
 41 43  1  0  0  0  0
 41117  1  0  0  0  0
 41118  1  0  0  0  0
 42 44  1  0  0  0  0
 42119  1  0  0  0  0
 42120  1  0  0  0  0
 43 45  1  0  0  0  0
 43121  1  0  0  0  0
 43122  1  0  0  0  0
 44 46  1  0  0  0  0
 44123  1  0  0  0  0
 44124  1  0  0  0  0
 45 49  1  0  0  0  0
 45125  1  0  0  0  0
 45126  1  0  0  0  0
 46 50  1  0  0  0  0
 46127  1  0  0  0  0
 46128  1  0  0  0  0
 47 59  2  0  0  0  0
 48 60  2  0  0  0  0
 49 51  1  0  0  0  0
 49131  1  0  0  0  0
 49132  1  0  0  0  0
 50 52  1  0  0  0  0
 50133  1  0  0  0  0
 50134  1  0  0  0  0
 53 57  2  0  0  0  0
 53 65  1  0  0  0  0
 54 58  2  0  0  0  0
 54 66  1  0  0  0  0
 55 61  1  0  0  0  0
 55135  1  0  0  0  0
 56 62  1  0  0  0  0
 56136  1  0  0  0  0
 57 67  1  0  0  0  0
 58 68  1  0  0  0  0
 59 63  1  0  0  0  0
 59139  1  0  0  0  0
 60 64  1  0  0  0  0
 60140  1  0  0  0  0
 61 63  2  0  0  0  0
 61141  1  0  0  0  0
 62 64  2  0  0  0  0
 62142  1  0  0  0  0
 63143  1  0  0  0  0
 64144  1  0  0  0  0
 65 69  2  0  0  0  0
 65145  1  0  0  0  0
 66 70  2  0  0  0  0
 66146  1  0  0  0  0
 67 71  2  0  0  0  0
 67147  1  0  0  0  0
 68 72  2  0  0  0  0
 68148  1  0  0  0  0
 69 71  1  0  0  0  0
 70 72  1  0  0  0  0
 71149  1  0  0  0  0
 72150  1  0  0  0  0
M  END
> <PUBCHEM_COMPOUND_CID>
136020067

> <PUBCHEM_COMPOUND_CANONICALIZED>
1

> <PUBCHEM_CACTVS_COMPLEXITY>
1540

> <PUBCHEM_CACTVS_HBOND_ACCEPTOR>
8

> <PUBCHEM_CACTVS_HBOND_DONOR>
4

> <PUBCHEM_CACTVS_ROTATABLE_BOND>
27

> <PUBCHEM_CACTVS_SUBSKEYS>
AAADcfB/8AAGAAAAAAAAAAAAAAAAAAAAAAA8eMGCBAgAAAABVAAAHgIQAAAADArBmCQxwIPAAACoAidydACCAAEhBwAJiIEodpgIYPLB25GUIAhglgDIyAcYiICOAABAAAICACAAAIAABAQAQAAAAAAAAA==

> <PUBCHEM_IUPAC_OPENEYE_NAME>
N,N'-bis[3-[4-(3-chloro-11H-benzo[b][1,4]benzodiazepin-6-yl)piperazin-1-yl]propyl]octadecanediamide

> <PUBCHEM_IUPAC_CAS_NAME>
N,N'-bis[3-[4-(3-chloro-11H-benzo[b][1,4]benzodiazepin-6-yl)-1-piperazinyl]propyl]octadecanediamide

> <PUBCHEM_IUPAC_NAME_MARKUP>
<I>N</I>,<I>N</I>&apos;-bis[3-[4-(3-chloro-11<I>H</I>-benzo[b][1,4]benzodiazepin-6-yl)piperazin-1-yl]propyl]octadecanediamide

> <PUBCHEM_IUPAC_NAME>
N,N'-bis[3-[4-(3-chloro-11H-benzo[b][1,4]benzodiazepin-6-yl)piperazin-1-yl]propyl]octadecanediamide

> <PUBCHEM_IUPAC_SYSTEMATIC_NAME>
N,N'-bis[3-[4-(3-chloranyl-11H-benzo[b][1,4]benzodiazepin-6-yl)piperazin-1-yl]propyl]octadecanediamide

> <PUBCHEM_IUPAC_TRADITIONAL_NAME>
N,N'-bis[3-[4-(3-chloro-11H-benzo[b][1,4]benzodiazepin-6-yl)piperazino]propyl]octadecanediamide

> <PUBCHEM_IUPAC_INCHI>
InChI=1S/C58H78Cl2N10O2/c59-45-27-29-51-53(43-45)65-57(47-21-15-17-23-49(47)63-51)69-39-35-67(36-40-69)33-19-31-61-55(71)25-13-11-9-7-5-3-1-2-4-6-8-10-12-14-26-56(72)62-32-20-34-68-37-41-70(42-38-68)58-48-22-16-18-24-50(48)64-52-30-28-46(60)44-54(52)66-58/h15-18,21-24,27-30,43-44,63-64H,1-14,19-20,25-26,31-42H2,(H,61,71)(H,62,72)

> <PUBCHEM_IUPAC_INCHIKEY>
WJTVEGPKKNCRPB-UHFFFAOYSA-N

> <PUBCHEM_XLOGP3_AA>
12.3

> <PUBCHEM_EXACT_MASS>
1016.5686272

> <PUBCHEM_MOLECULAR_FORMULA>
C58H78Cl2N10O2

> <PUBCHEM_MOLECULAR_WEIGHT>
1018.2

> <PUBCHEM_OPENEYE_CAN_SMILES>
C1CN(CCN1CCCNC(=O)CCCCCCCCCCCCCCCCC(=O)NCCCN2CCN(CC2)C3=NC4=C(C=CC(=C4)Cl)NC5=CC=CC=C53)C6=NC7=C(C=CC(=C7)Cl)NC8=CC=CC=C86

> <PUBCHEM_OPENEYE_ISO_SMILES>
C1CN(CCN1CCCNC(=O)CCCCCCCCCCCCCCCCC(=O)NCCCN2CCN(CC2)C3=NC4=C(C=CC(=C4)Cl)NC5=CC=CC=C53)C6=NC7=C(C=CC(=C7)Cl)NC8=CC=CC=C86

> <PUBCHEM_CACTVS_TPSA>
120

> <PUBCHEM_MONOISOTOPIC_WEIGHT>
1016.5686272

> <PUBCHEM_TOTAL_CHARGE>
0

> <PUBCHEM_HEAVY_ATOM_COUNT>
72

> <PUBCHEM_ATOM_DEF_STEREO_COUNT>
0

> <PUBCHEM_ATOM_UDEF_STEREO_COUNT>
0

> <PUBCHEM_BOND_DEF_STEREO_COUNT>
0

> <PUBCHEM_BOND_UDEF_STEREO_COUNT>
0

> <PUBCHEM_ISOTOPIC_ATOM_COUNT>
0

> <PUBCHEM_COMPONENT_COUNT>
1

> <PUBCHEM_CACTVS_TAUTO_COUNT>
-1

> <PUBCHEM_COORDINATE_TYPE>
1
5
255

> <PUBCHEM_BONDANNOTATIONS>
33  47  8
33  55  8
34  48  8
34  56  8
47  59  8
48  60  8
53  57  8
53  65  8
54  58  8
54  66  8
55  61  8
56  62  8
57  67  8
58  68  8
59  63  8
60  64  8
61  63  8
62  64  8
65  69  8
66  70  8
67  71  8
68  72  8
69  71  8
70  72  8

$$$$
