134150637
  -OEChem-09292322372D

 69 73  0     1  0  0  0  0  0999 V2000
    4.4908    0.6241    0.0000 S   0  0  0  0  0  0  0  0  0  0  0  0
   10.1830   -7.7259    0.0000 F   0  0  0  0  0  0  0  0  0  0  0  0
    8.8170   -8.0919    0.0000 F   0  0  0  0  0  0  0  0  0  0  0  0
    9.8170   -6.3599    0.0000 F   0  0  0  0  0  0  0  0  0  0  0  0
    4.2690    7.4719    0.0000 O   0  0  0  0  0  0  0  0  0  0  0  0
    4.8528   -2.8210    0.0000 N   0  0  3  0  0  0  0  0  0  0  0  0
    4.2120    2.3842    0.0000 N   0  0  0  0  0  0  0  0  0  0  0  0
    3.4030    5.9719    0.0000 N   0  0  0  0  0  0  0  0  0  0  0  0
    2.9030    1.4331    0.0000 N   0  0  0  0  0  0  0  0  0  0  0  0
    2.5939    2.3842    0.0000 N   0  0  0  0  0  0  0  0  0  0  0  0
    2.5369    7.4719    0.0000 N   0  0  0  0  0  0  0  0  0  0  0  0
    5.3528   -4.3599    0.0000 C   0  0  2  0  0  0  0  0  0  0  0  0
    5.8528   -5.2259    0.0000 C   0  0  2  0  0  0  0  0  0  0  0  0
    4.8528   -5.2259    0.0000 C   0  0  0  0  0  0  0  0  0  0  0  0
    6.1619   -3.7721    0.0000 C   0  0  0  0  0  0  0  0  0  0  0  0
    4.5438   -3.7721    0.0000 C   0  0  0  0  0  0  0  0  0  0  0  0
    5.8528   -2.8210    0.0000 C   0  0  0  0  0  0  0  0  0  0  0  0
    6.7189   -5.7259    0.0000 C   0  0  0  0  0  0  0  0  0  0  0  0
    4.2651   -2.0120    0.0000 C   0  0  0  0  0  0  0  0  0  0  0  0
    7.5849   -5.2259    0.0000 C   0  0  0  0  0  0  0  0  0  0  0  0
    6.7189   -6.7259    0.0000 C   0  0  0  0  0  0  0  0  0  0  0  0
    4.6718   -1.0985    0.0000 C   0  0  0  0  0  0  0  0  0  0  0  0
    8.4509   -5.7259    0.0000 C   0  0  0  0  0  0  0  0  0  0  0  0
    7.5849   -7.2259    0.0000 C   0  0  0  0  0  0  0  0  0  0  0  0
    8.4509   -6.7259    0.0000 C   0  0  0  0  0  0  0  0  0  0  0  0
    4.0840   -0.2895    0.0000 C   0  0  0  0  0  0  0  0  0  0  0  0
    9.3170   -7.2259    0.0000 C   0  0  0  0  0  0  0  0  0  0  0  0
    3.4030    3.9719    0.0000 C   0  0  0  0  0  0  0  0  0  0  0  0
    3.9030    1.4331    0.0000 C   0  0  0  0  0  0  0  0  0  0  0  0
    4.2690    4.4719    0.0000 C   0  0  0  0  0  0  0  0  0  0  0  0
    2.5369    4.4719    0.0000 C   0  0  0  0  0  0  0  0  0  0  0  0
    3.4030    2.9719    0.0000 C   0  0  0  0  0  0  0  0  0  0  0  0
    4.2690    5.4719    0.0000 C   0  0  0  0  0  0  0  0  0  0  0  0
    2.5369    5.4719    0.0000 C   0  0  0  0  0  0  0  0  0  0  0  0
    5.1630    2.6932    0.0000 C   0  0  0  0  0  0  0  0  0  0  0  0
    3.4030    6.9719    0.0000 C   0  0  0  0  0  0  0  0  0  0  0  0
    5.6924   -5.8248    0.0000 H   0  0  0  0  0  0  0  0  0  0  0  0
    4.2702   -5.0139    0.0000 H   0  0  0  0  0  0  0  0  0  0  0  0
    4.7452   -5.8365    0.0000 H   0  0  0  0  0  0  0  0  0  0  0  0
    6.4719   -4.3090    0.0000 H   0  0  0  0  0  0  0  0  0  0  0  0
    6.7283   -3.5199    0.0000 H   0  0  0  0  0  0  0  0  0  0  0  0
    3.9774   -3.5199    0.0000 H   0  0  0  0  0  0  0  0  0  0  0  0
    4.2338   -4.3090    0.0000 H   0  0  0  0  0  0  0  0  0  0  0  0
    6.4593   -2.6921    0.0000 H   0  0  0  0  0  0  0  0  0  0  0  0
    5.7880   -2.2044    0.0000 H   0  0  0  0  0  0  0  0  0  0  0  0
    3.7511   -1.6653    0.0000 H   0  0  0  0  0  0  0  0  0  0  0  0
    3.8344   -2.4580    0.0000 H   0  0  0  0  0  0  0  0  0  0  0  0
    7.5849   -4.6059    0.0000 H   0  0  0  0  0  0  0  0  0  0  0  0
    6.1819   -7.0359    0.0000 H   0  0  0  0  0  0  0  0  0  0  0  0
    5.1858   -1.4452    0.0000 H   0  0  0  0  0  0  0  0  0  0  0  0
    5.1025   -0.6525    0.0000 H   0  0  0  0  0  0  0  0  0  0  0  0
    8.9879   -5.4159    0.0000 H   0  0  0  0  0  0  0  0  0  0  0  0
    7.5849   -7.8459    0.0000 H   0  0  0  0  0  0  0  0  0  0  0  0
    3.5700    0.0572    0.0000 H   0  0  0  0  0  0  0  0  0  0  0  0
    3.6533   -0.7355    0.0000 H   0  0  0  0  0  0  0  0  0  0  0  0
    3.9399    3.6619    0.0000 H   0  0  0  0  0  0  0  0  0  0  0  0
    4.4810    3.8893    0.0000 H   0  0  0  0  0  0  0  0  0  0  0  0
    4.8796    4.5796    0.0000 H   0  0  0  0  0  0  0  0  0  0  0  0
    1.9264    4.5796    0.0000 H   0  0  0  0  0  0  0  0  0  0  0  0
    2.3249    3.8893    0.0000 H   0  0  0  0  0  0  0  0  0  0  0  0
    4.8796    5.3643    0.0000 H   0  0  0  0  0  0  0  0  0  0  0  0
    4.4810    6.0546    0.0000 H   0  0  0  0  0  0  0  0  0  0  0  0
    2.3249    6.0546    0.0000 H   0  0  0  0  0  0  0  0  0  0  0  0
    1.9264    5.3643    0.0000 H   0  0  0  0  0  0  0  0  0  0  0  0
    5.3546    2.1035    0.0000 H   0  0  0  0  0  0  0  0  0  0  0  0
    5.7527    2.8848    0.0000 H   0  0  0  0  0  0  0  0  0  0  0  0
    4.9714    3.2828    0.0000 H   0  0  0  0  0  0  0  0  0  0  0  0
    2.5369    8.0919    0.0000 H   0  0  0  0  0  0  0  0  0  0  0  0
    2.0000    7.1619    0.0000 H   0  0  0  0  0  0  0  0  0  0  0  0
  1 26  1  0  0  0  0
  1 29  1  0  0  0  0
  2 27  1  0  0  0  0
  3 27  1  0  0  0  0
  4 27  1  0  0  0  0
  5 36  2  0  0  0  0
  6 16  1  0  0  0  0
  6 17  1  0  0  0  0
  6 19  1  0  0  0  0
  7 29  1  0  0  0  0
  7 32  1  0  0  0  0
  7 35  1  0  0  0  0
  8 33  1  0  0  0  0
  8 34  1  0  0  0  0
  8 36  1  0  0  0  0
  9 10  1  0  0  0  0
  9 29  2  0  0  0  0
 10 32  2  0  0  0  0
 11 36  1  0  0  0  0
 11 68  1  0  0  0  0
 11 69  1  0  0  0  0
 12 13  1  0  0  0  0
 12 14  1  6  0  0  0
 12 15  1  0  0  0  0
 12 16  1  0  0  0  0
 13 14  1  0  0  0  0
 13 18  1  1  0  0  0
 13 37  1  0  0  0  0
 14 38  1  0  0  0  0
 14 39  1  0  0  0  0
 15 17  1  0  0  0  0
 15 40  1  0  0  0  0
 15 41  1  0  0  0  0
 16 42  1  0  0  0  0
 16 43  1  0  0  0  0
 17 44  1  0  0  0  0
 17 45  1  0  0  0  0
 18 20  2  0  0  0  0
 18 21  1  0  0  0  0
 19 22  1  0  0  0  0
 19 46  1  0  0  0  0
 19 47  1  0  0  0  0
 20 23  1  0  0  0  0
 20 48  1  0  0  0  0
 21 24  2  0  0  0  0
 21 49  1  0  0  0  0
 22 26  1  0  0  0  0
 22 50  1  0  0  0  0
 22 51  1  0  0  0  0
 23 25  2  0  0  0  0
 23 52  1  0  0  0  0
 24 25  1  0  0  0  0
 24 53  1  0  0  0  0
 25 27  1  0  0  0  0
 26 54  1  0  0  0  0
 26 55  1  0  0  0  0
 28 30  1  0  0  0  0
 28 31  1  0  0  0  0
 28 32  1  0  0  0  0
 28 56  1  0  0  0  0
 30 33  1  0  0  0  0
 30 57  1  0  0  0  0
 30 58  1  0  0  0  0
 31 34  1  0  0  0  0
 31 59  1  0  0  0  0
 31 60  1  0  0  0  0
 33 61  1  0  0  0  0
 33 62  1  0  0  0  0
 34 63  1  0  0  0  0
 34 64  1  0  0  0  0
 35 65  1  0  0  0  0
 35 66  1  0  0  0  0
 35 67  1  0  0  0  0
M  END
> <PUBCHEM_COMPOUND_CID>
134150637

> <PUBCHEM_COMPOUND_CANONICALIZED>
1

> <PUBCHEM_CACTVS_COMPLEXITY>
773

> <PUBCHEM_CACTVS_HBOND_ACCEPTOR>
8

> <PUBCHEM_CACTVS_HBOND_DONOR>
1

> <PUBCHEM_CACTVS_ROTATABLE_BOND>
7

> <PUBCHEM_CACTVS_SUBSKEYS>
AAADcfB7oYBAAAAAAAAAAAAAGAAAAWLAAAA8QAAAAAAAAAABwAAAHwQYAAAADwDFWxSzEIdMEAiqAiJiNAAS0AtgALAdyAA4AIiIKCKgmRCEIAAgjgKIiAcQgMAPwAAAAAAAAACAAAAAAAAAAAAAAAAAAA==

> <PUBCHEM_IUPAC_OPENEYE_NAME>
4-[4-methyl-5-[3-[(2R,3S)-2-[4-(trifluoromethyl)phenyl]-5-azaspiro[2.4]heptan-5-yl]propylsulfanyl]-1,2,4-triazol-3-yl]piperidine-1-carboxamide

> <PUBCHEM_IUPAC_CAS_NAME>
4-[4-methyl-5-[3-[(2R,3S)-2-[4-(trifluoromethyl)phenyl]-5-azaspiro[2.4]heptan-5-yl]propylthio]-1,2,4-triazol-3-yl]-1-piperidinecarboxamide

> <PUBCHEM_IUPAC_NAME_MARKUP>
4-[4-methyl-5-[3-[(2<I>R</I>,3<I>S</I>)-2-[4-(trifluoromethyl)phenyl]-5-azaspiro[2.4]heptan-5-yl]propylsulfanyl]-1,2,4-triazol-3-yl]piperidine-1-carboxamide

> <PUBCHEM_IUPAC_NAME>
4-[4-methyl-5-[3-[(2R,3S)-2-[4-(trifluoromethyl)phenyl]-5-azaspiro[2.4]heptan-5-yl]propylsulfanyl]-1,2,4-triazol-3-yl]piperidine-1-carboxamide

> <PUBCHEM_IUPAC_SYSTEMATIC_NAME>
4-[4-methyl-5-[3-[(2R,3S)-2-[4-(trifluoromethyl)phenyl]-5-azaspiro[2.4]heptan-5-yl]propylsulfanyl]-1,2,4-triazol-3-yl]piperidine-1-carboxamide

> <PUBCHEM_IUPAC_TRADITIONAL_NAME>
4-[4-methyl-5-[3-[(2R,3S)-2-[4-(trifluoromethyl)phenyl]-5-azaspiro[2.4]heptan-5-yl]propylthio]-1,2,4-triazol-3-yl]piperidine-1-carboxamide

> <PUBCHEM_IUPAC_INCHI>
InChI=1S/C25H33F3N6OS/c1-32-21(18-7-11-34(12-8-18)22(29)35)30-31-23(32)36-14-2-10-33-13-9-24(16-33)15-20(24)17-3-5-19(6-4-17)25(26,27)28/h3-6,18,20H,2,7-16H2,1H3,(H2,29,35)/t20-,24+/m1/s1

> <PUBCHEM_IUPAC_INCHIKEY>
VQODXNCHOGDXSX-YKSBVNFPSA-N

> <PUBCHEM_XLOGP3_AA>
3.2

> <PUBCHEM_EXACT_MASS>
522.23886536

> <PUBCHEM_MOLECULAR_FORMULA>
C25H33F3N6OS

> <PUBCHEM_MOLECULAR_WEIGHT>
522.6

> <PUBCHEM_OPENEYE_CAN_SMILES>
CN1C(=NN=C1SCCCN2CCC3(C2)CC3C4=CC=C(C=C4)C(F)(F)F)C5CCN(CC5)C(=O)N

> <PUBCHEM_OPENEYE_ISO_SMILES>
CN1C(=NN=C1SCCCN2CC[C@@]3(C2)C[C@@H]3C4=CC=C(C=C4)C(F)(F)F)C5CCN(CC5)C(=O)N

> <PUBCHEM_CACTVS_TPSA>
106

> <PUBCHEM_MONOISOTOPIC_WEIGHT>
522.23886536

> <PUBCHEM_TOTAL_CHARGE>
0

> <PUBCHEM_HEAVY_ATOM_COUNT>
36

> <PUBCHEM_ATOM_DEF_STEREO_COUNT>
2

> <PUBCHEM_ATOM_UDEF_STEREO_COUNT>
0

> <PUBCHEM_BOND_DEF_STEREO_COUNT>
0

> <PUBCHEM_BOND_UDEF_STEREO_COUNT>
0

> <PUBCHEM_ISOTOPIC_ATOM_COUNT>
0

> <PUBCHEM_COMPONENT_COUNT>
1

> <PUBCHEM_CACTVS_TAUTO_COUNT>
-1

> <PUBCHEM_COORDINATE_TYPE>
1
5
255

> <PUBCHEM_BONDANNOTATIONS>
10  32  8
12  14  6
13  18  5
18  20  8
18  21  8
20  23  8
21  24  8
23  25  8
24  25  8
7  29  8
7  32  8
9  10  8
9  29  8

$$$$
