164916952
  -OEChem-09292322442D

 75 78  0     1  0  0  0  0  0999 V2000
   12.6884    0.9183    0.0000 O   0  0  0  0  0  0  0  0  0  0  0  0
    7.2602    0.0522    0.0000 N   0  0  3  0  0  0  0  0  0  0  0  0
   11.5904   -0.4478    0.0000 N   0  0  0  0  0  0  0  0  0  0  0  0
   13.5148    1.9031    0.0000 N   0  0  0  0  0  0  0  0  0  0  0  0
    2.0000   -0.9753    0.0000 N   0  0  0  0  0  0  0  0  0  0  0  0
   14.1884    0.0522    0.0000 C   0  0  0  0  0  0  0  0  0  0  0  0
   13.3224   -0.4478    0.0000 C   0  0  0  0  0  0  0  0  0  0  0  0
    8.1263   -0.4478    0.0000 C   0  0  0  0  0  0  0  0  0  0  0  0
    7.2602    1.0522    0.0000 C   0  0  0  0  0  0  0  0  0  0  0  0
    6.3942   -0.4478    0.0000 C   0  0  0  0  0  0  0  0  0  0  0  0
    8.9923    0.0522    0.0000 C   0  0  0  0  0  0  0  0  0  0  0  0
    6.3942    1.5522    0.0000 C   0  0  0  0  0  0  0  0  0  0  0  0
   12.4564    0.0522    0.0000 C   0  0  0  0  0  0  0  0  0  0  0  0
    9.8583   -0.4478    0.0000 C   0  0  0  0  0  0  0  0  0  0  0  0
    5.5282    0.0522    0.0000 C   0  0  0  0  0  0  0  0  0  0  0  0
    5.5282    1.0522    0.0000 C   0  0  0  0  0  0  0  0  0  0  0  0
   15.0545    0.5522    0.0000 C   0  0  0  0  0  0  0  0  0  0  0  0
   14.6884   -0.8138    0.0000 C   0  0  0  0  0  0  0  0  0  0  0  0
   10.7243    0.0522    0.0000 C   0  0  0  0  0  0  0  0  0  0  0  0
   13.6884    0.9183    0.0000 C   0  0  0  0  0  0  0  0  0  0  0  0
    4.6342   -0.4824    0.0000 C   0  0  0  0  0  0  0  0  0  0  0  0
    4.6342    1.5869    0.0000 C   0  0  0  0  0  0  0  0  0  0  0  0
   15.9205    0.0522    0.0000 C   0  0  0  0  0  0  0  0  0  0  0  0
   15.6884   -0.8138    0.0000 C   0  0  0  0  0  0  0  0  0  0  0  0
   15.0545    1.5522    0.0000 C   0  0  0  0  0  0  0  0  0  0  0  0
   14.1884   -1.6798    0.0000 C   0  0  0  0  0  0  0  0  0  0  0  0
    3.7282    0.0314    0.0000 C   0  0  0  0  0  0  0  0  0  0  0  0
    3.7282    1.0730    0.0000 C   0  0  0  0  0  0  0  0  0  0  0  0
   16.7865    0.5522    0.0000 C   0  0  0  0  0  0  0  0  0  0  0  0
   16.1884   -1.6798    0.0000 C   0  0  0  0  0  0  0  0  0  0  0  0
   15.9205    2.0522    0.0000 C   0  0  0  0  0  0  0  0  0  0  0  0
   14.6884   -2.5458    0.0000 C   0  0  0  0  0  0  0  0  0  0  0  0
   12.5751    2.2451    0.0000 C   0  0  0  0  0  0  0  0  0  0  0  0
   14.2808    2.5458    0.0000 C   0  0  0  0  0  0  0  0  0  0  0  0
   16.7865    1.5522    0.0000 C   0  0  0  0  0  0  0  0  0  0  0  0
   15.6884   -2.5458    0.0000 C   0  0  0  0  0  0  0  0  0  0  0  0
    2.8641   -0.4719    0.0000 C   0  0  0  0  0  0  0  0  0  0  0  0
   12.9239   -0.9227    0.0000 H   0  0  0  0  0  0  0  0  0  0  0  0
   13.7209   -0.9227    0.0000 H   0  0  0  0  0  0  0  0  0  0  0  0
    7.7277   -0.9227    0.0000 H   0  0  0  0  0  0  0  0  0  0  0  0
    8.5248   -0.9227    0.0000 H   0  0  0  0  0  0  0  0  0  0  0  0
    7.8708    0.9446    0.0000 H   0  0  0  0  0  0  0  0  0  0  0  0
    7.4723    1.6348    0.0000 H   0  0  0  0  0  0  0  0  0  0  0  0
    5.9957   -0.9227    0.0000 H   0  0  0  0  0  0  0  0  0  0  0  0
    6.7928   -0.9227    0.0000 H   0  0  0  0  0  0  0  0  0  0  0  0
    9.3908    0.5272    0.0000 H   0  0  0  0  0  0  0  0  0  0  0  0
    8.5938    0.5272    0.0000 H   0  0  0  0  0  0  0  0  0  0  0  0
    6.7928    2.0272    0.0000 H   0  0  0  0  0  0  0  0  0  0  0  0
    5.9957    2.0272    0.0000 H   0  0  0  0  0  0  0  0  0  0  0  0
   12.8549    0.5272    0.0000 H   0  0  0  0  0  0  0  0  0  0  0  0
   12.0579    0.5272    0.0000 H   0  0  0  0  0  0  0  0  0  0  0  0
    9.4598   -0.9227    0.0000 H   0  0  0  0  0  0  0  0  0  0  0  0
   10.2568   -0.9227    0.0000 H   0  0  0  0  0  0  0  0  0  0  0  0
   11.1229    0.5272    0.0000 H   0  0  0  0  0  0  0  0  0  0  0  0
   10.3258    0.5272    0.0000 H   0  0  0  0  0  0  0  0  0  0  0  0
   11.5904   -1.0678    0.0000 H   0  0  0  0  0  0  0  0  0  0  0  0
    4.6414   -1.1024    0.0000 H   0  0  0  0  0  0  0  0  0  0  0  0
    4.6414    2.2069    0.0000 H   0  0  0  0  0  0  0  0  0  0  0  0
   15.9205   -0.5678    0.0000 H   0  0  0  0  0  0  0  0  0  0  0  0
   15.9984   -0.2769    0.0000 H   0  0  0  0  0  0  0  0  0  0  0  0
   14.5175    1.8622    0.0000 H   0  0  0  0  0  0  0  0  0  0  0  0
   13.5684   -1.6798    0.0000 H   0  0  0  0  0  0  0  0  0  0  0  0
    3.1924    1.3851    0.0000 H   0  0  0  0  0  0  0  0  0  0  0  0
   17.3235    0.2422    0.0000 H   0  0  0  0  0  0  0  0  0  0  0  0
   16.8084   -1.6798    0.0000 H   0  0  0  0  0  0  0  0  0  0  0  0
   15.9205    2.6722    0.0000 H   0  0  0  0  0  0  0  0  0  0  0  0
   14.3784   -3.0828    0.0000 H   0  0  0  0  0  0  0  0  0  0  0  0
   12.7872    2.8277    0.0000 H   0  0  0  0  0  0  0  0  0  0  0  0
   11.9925    2.4571    0.0000 H   0  0  0  0  0  0  0  0  0  0  0  0
   12.3631    1.6625    0.0000 H   0  0  0  0  0  0  0  0  0  0  0  0
   14.6794    2.0709    0.0000 H   0  0  0  0  0  0  0  0  0  0  0  0
   14.7558    2.9444    0.0000 H   0  0  0  0  0  0  0  0  0  0  0  0
   13.8823    3.0208    0.0000 H   0  0  0  0  0  0  0  0  0  0  0  0
   17.3235    1.8622    0.0000 H   0  0  0  0  0  0  0  0  0  0  0  0
   15.9984   -3.0828    0.0000 H   0  0  0  0  0  0  0  0  0  0  0  0
  1 20  2  0  0  0  0
  2  8  1  0  0  0  0
  2  9  1  0  0  0  0
  2 10  1  0  0  0  0
  3 13  1  0  0  0  0
  3 19  1  0  0  0  0
  3 56  1  0  0  0  0
  4 20  1  0  0  0  0
  4 33  1  0  0  0  0
  4 34  1  0  0  0  0
  5 37  3  0  0  0  0
  6  7  1  0  0  0  0
  6 17  1  0  0  0  0
  6 18  1  0  0  0  0
  6 20  1  0  0  0  0
  7 13  1  0  0  0  0
  7 38  1  0  0  0  0
  7 39  1  0  0  0  0
  8 11  1  0  0  0  0
  8 40  1  0  0  0  0
  8 41  1  0  0  0  0
  9 12  1  0  0  0  0
  9 42  1  0  0  0  0
  9 43  1  0  0  0  0
 10 15  1  0  0  0  0
 10 44  1  0  0  0  0
 10 45  1  0  0  0  0
 11 14  1  0  0  0  0
 11 46  1  0  0  0  0
 11 47  1  0  0  0  0
 12 16  1  0  0  0  0
 12 48  1  0  0  0  0
 12 49  1  0  0  0  0
 13 50  1  0  0  0  0
 13 51  1  0  0  0  0
 14 19  1  0  0  0  0
 14 52  1  0  0  0  0
 14 53  1  0  0  0  0
 15 16  2  0  0  0  0
 15 21  1  0  0  0  0
 16 22  1  0  0  0  0
 17 23  2  0  0  0  0
 17 25  1  0  0  0  0
 18 24  2  0  0  0  0
 18 26  1  0  0  0  0
 19 54  1  0  0  0  0
 19 55  1  0  0  0  0
 21 27  2  0  0  0  0
 21 57  1  0  0  0  0
 22 28  2  0  0  0  0
 22 58  1  0  0  0  0
 23 29  1  0  0  0  0
 23 59  1  0  0  0  0
 24 30  1  0  0  0  0
 24 60  1  0  0  0  0
 25 31  2  0  0  0  0
 25 61  1  0  0  0  0
 26 32  2  0  0  0  0
 26 62  1  0  0  0  0
 27 28  1  0  0  0  0
 27 37  1  0  0  0  0
 28 63  1  0  0  0  0
 29 35  2  0  0  0  0
 29 64  1  0  0  0  0
 30 36  2  0  0  0  0
 30 65  1  0  0  0  0
 31 35  1  0  0  0  0
 31 66  1  0  0  0  0
 32 36  1  0  0  0  0
 32 67  1  0  0  0  0
 33 68  1  0  0  0  0
 33 69  1  0  0  0  0
 33 70  1  0  0  0  0
 34 71  1  0  0  0  0
 34 72  1  0  0  0  0
 34 73  1  0  0  0  0
 35 74  1  0  0  0  0
 36 75  1  0  0  0  0
M  END
> <PUBCHEM_COMPOUND_CID>
164916952

> <PUBCHEM_COMPOUND_CANONICALIZED>
1

> <PUBCHEM_CACTVS_COMPLEXITY>
727

> <PUBCHEM_CACTVS_HBOND_ACCEPTOR>
4

> <PUBCHEM_CACTVS_HBOND_DONOR>
1

> <PUBCHEM_CACTVS_ROTATABLE_BOND>
11

> <PUBCHEM_CACTVS_SUBSKEYS>
AAADcfB/oAAAAAAAAAAAAAAAAAAAAAAAAAA8YMEAAAAAAACxUAAAHgAQAAAADgDBmAQyAIPAAACYBiFSEACiAAAgAAAIiIEIBIgIoDKAlRGEIAhgkgCIiA8ciMCPwAACAAAQAACAAAQAACAAAAAAAAAAAA==

> <PUBCHEM_IUPAC_OPENEYE_NAME>
4-[4-(7-cyano-3,4-dihydro-1H-isoquinolin-2-yl)butylamino]-N,N-dimethyl-2,2-diphenyl-butanamide

> <PUBCHEM_IUPAC_CAS_NAME>
4-[4-(7-cyano-3,4-dihydro-1H-isoquinolin-2-yl)butylamino]-N,N-dimethyl-2,2-diphenylbutanamide

> <PUBCHEM_IUPAC_NAME_MARKUP>
4-[4-(7-cyano-3,4-dihydro-1<I>H</I>-isoquinolin-2-yl)butylamino]-<I>N</I>,<I>N</I>-dimethyl-2,2-diphenylbutanamide

> <PUBCHEM_IUPAC_NAME>
4-[4-(7-cyano-3,4-dihydro-1H-isoquinolin-2-yl)butylamino]-N,N-dimethyl-2,2-diphenylbutanamide

> <PUBCHEM_IUPAC_SYSTEMATIC_NAME>
4-[4-(7-cyano-3,4-dihydro-1H-isoquinolin-2-yl)butylamino]-N,N-dimethyl-2,2-diphenyl-butanamide

> <PUBCHEM_IUPAC_TRADITIONAL_NAME>
4-[4-(7-cyano-3,4-dihydro-1H-isoquinolin-2-yl)butylamino]-N,N-dimethyl-2,2-diphenyl-butyramide

> <PUBCHEM_IUPAC_INCHI>
InChI=1S/C32H38N4O/c1-35(2)31(37)32(29-11-5-3-6-12-29,30-13-7-4-8-14-30)18-20-34-19-9-10-21-36-22-17-27-16-15-26(24-33)23-28(27)25-36/h3-8,11-16,23,34H,9-10,17-22,25H2,1-2H3

> <PUBCHEM_IUPAC_INCHIKEY>
TYNGMNWXSRTYJA-UHFFFAOYSA-N

> <PUBCHEM_XLOGP3_AA>
4.8

> <PUBCHEM_EXACT_MASS>
494.30456185

> <PUBCHEM_MOLECULAR_FORMULA>
C32H38N4O

> <PUBCHEM_MOLECULAR_WEIGHT>
494.7

> <PUBCHEM_OPENEYE_CAN_SMILES>
CN(C)C(=O)C(CCNCCCCN1CCC2=C(C1)C=C(C=C2)C#N)(C3=CC=CC=C3)C4=CC=CC=C4

> <PUBCHEM_OPENEYE_ISO_SMILES>
CN(C)C(=O)C(CCNCCCCN1CCC2=C(C1)C=C(C=C2)C#N)(C3=CC=CC=C3)C4=CC=CC=C4

> <PUBCHEM_CACTVS_TPSA>
59.4

> <PUBCHEM_MONOISOTOPIC_WEIGHT>
494.30456185

> <PUBCHEM_TOTAL_CHARGE>
0

> <PUBCHEM_HEAVY_ATOM_COUNT>
37

> <PUBCHEM_ATOM_DEF_STEREO_COUNT>
0

> <PUBCHEM_ATOM_UDEF_STEREO_COUNT>
0

> <PUBCHEM_BOND_DEF_STEREO_COUNT>
0

> <PUBCHEM_BOND_UDEF_STEREO_COUNT>
0

> <PUBCHEM_ISOTOPIC_ATOM_COUNT>
0

> <PUBCHEM_COMPONENT_COUNT>
1

> <PUBCHEM_CACTVS_TAUTO_COUNT>
-1

> <PUBCHEM_COORDINATE_TYPE>
1
5
255

> <PUBCHEM_BONDANNOTATIONS>
15  16  8
15  21  8
16  22  8
17  23  8
17  25  8
18  24  8
18  26  8
21  27  8
22  28  8
23  29  8
24  30  8
25  31  8
26  32  8
27  28  8
29  35  8
30  36  8
31  35  8
32  36  8

$$$$
