44326733
  -OEChem-09292322262D

 41 45  0     1  0  0  0  0  0999 V2000
    9.3884    2.5905    0.0000 O   0  0  0  0  0  0  0  0  0  0  0  0
   10.4791    1.4069    0.0000 O   0  0  0  0  0  0  0  0  0  0  0  0
    7.0547   -1.3911    0.0000 N   0  0  0  0  0  0  0  0  0  0  0  0
    4.5274   -0.2669    0.0000 N   0  0  0  0  0  0  0  0  0  0  0  0
    6.3518   -0.6224    0.0000 C   0  0  3  0  0  0  0  0  0  0  0  0
    5.3364   -0.8547    0.0000 C   0  0  0  0  0  0  0  0  0  0  0  0
    5.0274   -1.8057    0.0000 C   0  0  0  0  0  0  0  0  0  0  0  0
    5.7123   -2.5905    0.0000 C   0  0  0  0  0  0  0  0  0  0  0  0
    6.7328   -2.3817    0.0000 C   0  0  0  0  0  0  0  0  0  0  0  0
    6.6498    0.3322    0.0000 C   0  0  0  0  0  0  0  0  0  0  0  0
    4.0274   -1.8057    0.0000 C   0  0  0  0  0  0  0  0  0  0  0  0
    3.7183   -0.8547    0.0000 C   0  0  0  0  0  0  0  0  0  0  0  0
    7.6255    0.5514    0.0000 C   0  0  0  0  0  0  0  0  0  0  0  0
    3.3424   -2.5905    0.0000 C   0  0  0  0  0  0  0  0  0  0  0  0
    2.7029   -0.6224    0.0000 C   0  0  0  0  0  0  0  0  0  0  0  0
    7.9235    1.5059    0.0000 C   0  0  0  0  0  0  0  0  0  0  0  0
    8.3031   -0.1840    0.0000 C   0  0  0  0  0  0  0  0  0  0  0  0
    2.3219   -2.3817    0.0000 C   0  0  0  0  0  0  0  0  0  0  0  0
    2.0000   -1.3911    0.0000 C   0  0  0  0  0  0  0  0  0  0  0  0
    8.8991    1.7251    0.0000 C   0  0  0  0  0  0  0  0  0  0  0  0
    9.5768    0.9898    0.0000 C   0  0  0  0  0  0  0  0  0  0  0  0
    9.2788    0.0352    0.0000 C   0  0  0  0  0  0  0  0  0  0  0  0
   10.3630    2.3942    0.0000 C   0  0  0  0  0  0  0  0  0  0  0  0
    6.9570   -0.4877    0.0000 H   0  0  0  0  0  0  0  0  0  0  0  0
    5.1824   -2.9122    0.0000 H   0  0  0  0  0  0  0  0  0  0  0  0
    5.9387   -3.1677    0.0000 H   0  0  0  0  0  0  0  0  0  0  0  0
    6.7513   -3.0015    0.0000 H   0  0  0  0  0  0  0  0  0  0  0  0
    7.3466   -2.4696    0.0000 H   0  0  0  0  0  0  0  0  0  0  0  0
    6.6210    0.9515    0.0000 H   0  0  0  0  0  0  0  0  0  0  0  0
    6.0349    0.4113    0.0000 H   0  0  0  0  0  0  0  0  0  0  0  0
    7.6607   -1.2599    0.0000 H   0  0  0  0  0  0  0  0  0  0  0  0
    4.5274    0.3531    0.0000 H   0  0  0  0  0  0  0  0  0  0  0  0
    3.5408   -3.1779    0.0000 H   0  0  0  0  0  0  0  0  0  0  0  0
    2.5182   -0.0306    0.0000 H   0  0  0  0  0  0  0  0  0  0  0  0
    7.5033    1.9618    0.0000 H   0  0  0  0  0  0  0  0  0  0  0  0
    8.1184   -0.7758    0.0000 H   0  0  0  0  0  0  0  0  0  0  0  0
    1.9088   -2.8441    0.0000 H   0  0  0  0  0  0  0  0  0  0  0  0
    1.3940   -1.2599    0.0000 H   0  0  0  0  0  0  0  0  0  0  0  0
    9.6990   -0.4207    0.0000 H   0  0  0  0  0  0  0  0  0  0  0  0
   10.9829    2.4015    0.0000 H   0  0  0  0  0  0  0  0  0  0  0  0
   10.4208    3.0115    0.0000 H   0  0  0  0  0  0  0  0  0  0  0  0
  1 20  1  0  0  0  0
  1 23  1  0  0  0  0
  2 21  1  0  0  0  0
  2 23  1  0  0  0  0
  3  5  1  0  0  0  0
  3  9  1  0  0  0  0
  3 31  1  0  0  0  0
  4  6  1  0  0  0  0
  4 12  1  0  0  0  0
  4 32  1  0  0  0  0
  5  6  1  0  0  0  0
  5 10  1  0  0  0  0
  5 24  1  0  0  0  0
  6  7  2  0  0  0  0
  7  8  1  0  0  0  0
  7 11  1  0  0  0  0
  8  9  1  0  0  0  0
  8 25  1  0  0  0  0
  8 26  1  0  0  0  0
  9 27  1  0  0  0  0
  9 28  1  0  0  0  0
 10 13  1  0  0  0  0
 10 29  1  0  0  0  0
 10 30  1  0  0  0  0
 11 12  1  0  0  0  0
 11 14  2  0  0  0  0
 12 15  2  0  0  0  0
 13 16  2  0  0  0  0
 13 17  1  0  0  0  0
 14 18  1  0  0  0  0
 14 33  1  0  0  0  0
 15 19  1  0  0  0  0
 15 34  1  0  0  0  0
 16 20  1  0  0  0  0
 16 35  1  0  0  0  0
 17 22  2  0  0  0  0
 17 36  1  0  0  0  0
 18 19  2  0  0  0  0
 18 37  1  0  0  0  0
 19 38  1  0  0  0  0
 20 21  2  0  0  0  0
 21 22  1  0  0  0  0
 22 39  1  0  0  0  0
 23 40  1  0  0  0  0
 23 41  1  0  0  0  0
M  END
> <PUBCHEM_COMPOUND_CID>
44326733

> <PUBCHEM_COMPOUND_CANONICALIZED>
1

> <PUBCHEM_CACTVS_COMPLEXITY>
432

> <PUBCHEM_CACTVS_HBOND_ACCEPTOR>
3

> <PUBCHEM_CACTVS_HBOND_DONOR>
2

> <PUBCHEM_CACTVS_ROTATABLE_BOND>
2

> <PUBCHEM_CACTVS_SUBSKEYS>
AAADceB7MAAAAAAAAAAAAAAAAAAAAWJAAAA8YIAAAAAAAFgB9AAAHgAQAAAADCzBngcwzvLJlACgAyRiRACCiCAhIiAImaA+7JgdZuLEsZu0MCpk0BHO6AeQ0PMOoAABAAACQABAAAIAAASAAAAAAAAAAA==

> <PUBCHEM_IUPAC_OPENEYE_NAME>
1-(1,3-benzodioxol-5-ylmethyl)-2,3,4,9-tetrahydro-1H-pyrido[3,4-b]indole

> <PUBCHEM_IUPAC_CAS_NAME>
1-(1,3-benzodioxol-5-ylmethyl)-2,3,4,9-tetrahydro-1H-pyrido[3,4-b]indole

> <PUBCHEM_IUPAC_NAME_MARKUP>
1-(1,3-benzodioxol-5-ylmethyl)-2,3,4,9-tetrahydro-1<I>H</I>-pyrido[3,4-b]indole

> <PUBCHEM_IUPAC_NAME>
1-(1,3-benzodioxol-5-ylmethyl)-2,3,4,9-tetrahydro-1H-pyrido[3,4-b]indole

> <PUBCHEM_IUPAC_SYSTEMATIC_NAME>
1-(1,3-benzodioxol-5-ylmethyl)-2,3,4,9-tetrahydro-1H-pyrido[3,4-b]indole

> <PUBCHEM_IUPAC_TRADITIONAL_NAME>
1-piperonyl-2,3,4,9-tetrahydro-1H-beta-carboline

> <PUBCHEM_IUPAC_INCHI>
InChI=1S/C19H18N2O2/c1-2-4-15-13(3-1)14-7-8-20-16(19(14)21-15)9-12-5-6-17-18(10-12)23-11-22-17/h1-6,10,16,20-21H,7-9,11H2

> <PUBCHEM_IUPAC_INCHIKEY>
MALJSBPAAUAUNQ-UHFFFAOYSA-N

> <PUBCHEM_XLOGP3_AA>
3.3

> <PUBCHEM_EXACT_MASS>
306.136827821

> <PUBCHEM_MOLECULAR_FORMULA>
C19H18N2O2

> <PUBCHEM_MOLECULAR_WEIGHT>
306.4

> <PUBCHEM_OPENEYE_CAN_SMILES>
C1CNC(C2=C1C3=CC=CC=C3N2)CC4=CC5=C(C=C4)OCO5

> <PUBCHEM_OPENEYE_ISO_SMILES>
C1CNC(C2=C1C3=CC=CC=C3N2)CC4=CC5=C(C=C4)OCO5

> <PUBCHEM_CACTVS_TPSA>
46.3

> <PUBCHEM_MONOISOTOPIC_WEIGHT>
306.136827821

> <PUBCHEM_TOTAL_CHARGE>
0

> <PUBCHEM_HEAVY_ATOM_COUNT>
23

> <PUBCHEM_ATOM_DEF_STEREO_COUNT>
0

> <PUBCHEM_ATOM_UDEF_STEREO_COUNT>
1

> <PUBCHEM_BOND_DEF_STEREO_COUNT>
0

> <PUBCHEM_BOND_UDEF_STEREO_COUNT>
0

> <PUBCHEM_ISOTOPIC_ATOM_COUNT>
0

> <PUBCHEM_COMPONENT_COUNT>
1

> <PUBCHEM_CACTVS_TAUTO_COUNT>
-1

> <PUBCHEM_COORDINATE_TYPE>
1
5
255

> <PUBCHEM_BONDANNOTATIONS>
11  12  8
11  14  8
12  15  8
13  16  8
13  17  8
14  18  8
15  19  8
16  20  8
17  22  8
18  19  8
20  21  8
21  22  8
4  12  8
4  6  8
5  10  3
6  7  8
7  11  8

$$$$
