122191610
  -OEChem-09292322362D

 67 70  0     1  0  0  0  0  0999 V2000
   12.7619    4.5941    0.0000 O   0  0  0  0  0  0  0  0  0  0  0  0
    7.7619   -0.6020    0.0000 N   0  0  0  0  0  0  0  0  0  0  0  0
    6.7619   -2.3341    0.0000 N   0  0  0  0  0  0  0  0  0  0  0  0
    9.7619    1.1300    0.0000 N   0  0  3  0  0  0  0  0  0  0  0  0
    4.6783   -4.0048    0.0000 N   0  0  0  0  0  0  0  0  0  0  0  0
    6.7619   -0.6020    0.0000 C   0  0  0  0  0  0  0  0  0  0  0  0
    8.2619   -1.4680    0.0000 C   0  0  0  0  0  0  0  0  0  0  0  0
    6.2619   -1.4680    0.0000 C   0  0  0  0  0  0  0  0  0  0  0  0
    7.7619   -2.3341    0.0000 C   0  0  0  0  0  0  0  0  0  0  0  0
    8.2619    0.2640    0.0000 C   0  0  0  0  0  0  0  0  0  0  0  0
    6.2619   -3.2001    0.0000 C   0  0  0  0  0  0  0  0  0  0  0  0
    9.2619    0.2640    0.0000 C   0  0  0  0  0  0  0  0  0  0  0  0
    5.2619   -3.2001    0.0000 C   0  0  0  0  0  0  0  0  0  0  0  0
    9.2619    1.9961    0.0000 C   0  0  0  0  0  0  0  0  0  0  0  0
   10.7619    1.1300    0.0000 C   0  0  0  0  0  0  0  0  0  0  0  0
    4.6783   -2.3954    0.0000 C   0  0  0  0  0  0  0  0  0  0  0  0
    8.2619    1.9961    0.0000 C   0  0  0  0  0  0  0  0  0  0  0  0
    3.7320   -3.7001    0.0000 C   0  0  0  0  0  0  0  0  0  0  0  0
    3.7320   -2.7001    0.0000 C   0  0  0  0  0  0  0  0  0  0  0  0
   11.2619    1.9961    0.0000 C   0  0  0  0  0  0  0  0  0  0  0  0
    7.7619    2.8621    0.0000 C   0  0  0  0  0  0  0  0  0  0  0  0
    2.8660   -4.2001    0.0000 C   0  0  0  0  0  0  0  0  0  0  0  0
    2.8660   -2.2001    0.0000 C   0  0  0  0  0  0  0  0  0  0  0  0
   12.2619    1.9961    0.0000 C   0  0  0  0  0  0  0  0  0  0  0  0
   10.7619    2.8621    0.0000 C   0  0  0  0  0  0  0  0  0  0  0  0
    2.0000   -3.7001    0.0000 C   0  0  0  0  0  0  0  0  0  0  0  0
    2.0000   -2.7001    0.0000 C   0  0  0  0  0  0  0  0  0  0  0  0
   12.7619    2.8621    0.0000 C   0  0  0  0  0  0  0  0  0  0  0  0
   11.2619    3.7281    0.0000 C   0  0  0  0  0  0  0  0  0  0  0  0
   12.2619    3.7281    0.0000 C   0  0  0  0  0  0  0  0  0  0  0  0
   13.7619    4.5941    0.0000 C   0  0  0  0  0  0  0  0  0  0  0  0
    6.8695    0.0086    0.0000 H   0  0  0  0  0  0  0  0  0  0  0  0
    6.1793   -0.3900    0.0000 H   0  0  0  0  0  0  0  0  0  0  0  0
    8.7368   -1.8666    0.0000 H   0  0  0  0  0  0  0  0  0  0  0  0
    8.7368   -1.0695    0.0000 H   0  0  0  0  0  0  0  0  0  0  0  0
    5.7869   -1.0695    0.0000 H   0  0  0  0  0  0  0  0  0  0  0  0
    5.7869   -1.8666    0.0000 H   0  0  0  0  0  0  0  0  0  0  0  0
    7.6542   -2.9446    0.0000 H   0  0  0  0  0  0  0  0  0  0  0  0
    8.3445   -2.5461    0.0000 H   0  0  0  0  0  0  0  0  0  0  0  0
    8.3695    0.8746    0.0000 H   0  0  0  0  0  0  0  0  0  0  0  0
    7.6793    0.4761    0.0000 H   0  0  0  0  0  0  0  0  0  0  0  0
    6.1542   -3.8107    0.0000 H   0  0  0  0  0  0  0  0  0  0  0  0
    6.8445   -3.4121    0.0000 H   0  0  0  0  0  0  0  0  0  0  0  0
    9.1542   -0.3466    0.0000 H   0  0  0  0  0  0  0  0  0  0  0  0
    9.8445    0.0520    0.0000 H   0  0  0  0  0  0  0  0  0  0  0  0
    9.8445    2.2081    0.0000 H   0  0  0  0  0  0  0  0  0  0  0  0
    9.1542    2.6066    0.0000 H   0  0  0  0  0  0  0  0  0  0  0  0
   10.6542    0.5195    0.0000 H   0  0  0  0  0  0  0  0  0  0  0  0
   11.3445    0.9180    0.0000 H   0  0  0  0  0  0  0  0  0  0  0  0
    4.8709   -4.5941    0.0000 H   0  0  0  0  0  0  0  0  0  0  0  0
    4.8709   -1.8060    0.0000 H   0  0  0  0  0  0  0  0  0  0  0  0
    7.6793    1.7840    0.0000 H   0  0  0  0  0  0  0  0  0  0  0  0
    8.3695    1.3855    0.0000 H   0  0  0  0  0  0  0  0  0  0  0  0
    8.2988    3.1721    0.0000 H   0  0  0  0  0  0  0  0  0  0  0  0
    7.4519    3.3990    0.0000 H   0  0  0  0  0  0  0  0  0  0  0  0
    7.2249    2.5521    0.0000 H   0  0  0  0  0  0  0  0  0  0  0  0
    2.8660   -4.8201    0.0000 H   0  0  0  0  0  0  0  0  0  0  0  0
    2.8660   -1.5801    0.0000 H   0  0  0  0  0  0  0  0  0  0  0  0
   12.5719    1.4591    0.0000 H   0  0  0  0  0  0  0  0  0  0  0  0
   10.1419    2.8621    0.0000 H   0  0  0  0  0  0  0  0  0  0  0  0
    1.4631   -4.0101    0.0000 H   0  0  0  0  0  0  0  0  0  0  0  0
    1.4631   -2.3901    0.0000 H   0  0  0  0  0  0  0  0  0  0  0  0
   13.3819    2.8621    0.0000 H   0  0  0  0  0  0  0  0  0  0  0  0
   10.9519    4.2650    0.0000 H   0  0  0  0  0  0  0  0  0  0  0  0
   13.7619    3.9741    0.0000 H   0  0  0  0  0  0  0  0  0  0  0  0
   14.3819    4.5941    0.0000 H   0  0  0  0  0  0  0  0  0  0  0  0
   13.7619    5.2141    0.0000 H   0  0  0  0  0  0  0  0  0  0  0  0
  1 30  1  0  0  0  0
  1 31  1  0  0  0  0
  2  6  1  0  0  0  0
  2  7  1  0  0  0  0
  2 10  1  0  0  0  0
  3  8  1  0  0  0  0
  3  9  1  0  0  0  0
  3 11  1  0  0  0  0
  4 12  1  0  0  0  0
  4 14  1  0  0  0  0
  4 15  1  0  0  0  0
  5 13  1  0  0  0  0
  5 18  1  0  0  0  0
  5 50  1  0  0  0  0
  6  8  1  0  0  0  0
  6 32  1  0  0  0  0
  6 33  1  0  0  0  0
  7  9  1  0  0  0  0
  7 34  1  0  0  0  0
  7 35  1  0  0  0  0
  8 36  1  0  0  0  0
  8 37  1  0  0  0  0
  9 38  1  0  0  0  0
  9 39  1  0  0  0  0
 10 12  1  0  0  0  0
 10 40  1  0  0  0  0
 10 41  1  0  0  0  0
 11 13  1  0  0  0  0
 11 42  1  0  0  0  0
 11 43  1  0  0  0  0
 12 44  1  0  0  0  0
 12 45  1  0  0  0  0
 13 16  2  0  0  0  0
 14 17  1  0  0  0  0
 14 46  1  0  0  0  0
 14 47  1  0  0  0  0
 15 20  1  0  0  0  0
 15 48  1  0  0  0  0
 15 49  1  0  0  0  0
 16 19  1  0  0  0  0
 16 51  1  0  0  0  0
 17 21  1  0  0  0  0
 17 52  1  0  0  0  0
 17 53  1  0  0  0  0
 18 19  1  0  0  0  0
 18 22  2  0  0  0  0
 19 23  2  0  0  0  0
 20 24  2  0  0  0  0
 20 25  1  0  0  0  0
 21 54  1  0  0  0  0
 21 55  1  0  0  0  0
 21 56  1  0  0  0  0
 22 26  1  0  0  0  0
 22 57  1  0  0  0  0
 23 27  1  0  0  0  0
 23 58  1  0  0  0  0
 24 28  1  0  0  0  0
 24 59  1  0  0  0  0
 25 29  2  0  0  0  0
 25 60  1  0  0  0  0
 26 27  2  0  0  0  0
 26 61  1  0  0  0  0
 27 62  1  0  0  0  0
 28 30  2  0  0  0  0
 28 63  1  0  0  0  0
 29 30  1  0  0  0  0
 29 64  1  0  0  0  0
 31 65  1  0  0  0  0
 31 66  1  0  0  0  0
 31 67  1  0  0  0  0
M  END
> <PUBCHEM_COMPOUND_CID>
122191610

> <PUBCHEM_COMPOUND_CANONICALIZED>
1

> <PUBCHEM_CACTVS_COMPLEXITY>
502

> <PUBCHEM_CACTVS_HBOND_ACCEPTOR>
4

> <PUBCHEM_CACTVS_HBOND_DONOR>
1

> <PUBCHEM_CACTVS_ROTATABLE_BOND>
10

> <PUBCHEM_CACTVS_SUBSKEYS>
AAADcfB7oAAAAAAAAAAAAAAAAAAAAWAAAAA8YIAAAAAAAFgB9AAAHgAQAAAADAzBngYyxvPJlACgAyRiRACCiCAhIiAImSA+bJgMZuLEsZuUMChk0BHI6AeQ0IIOIAAAAAACAABAAAAAAAQAAAAAAAAAAA==

> <PUBCHEM_IUPAC_OPENEYE_NAME>
N-[2-[4-(1H-indol-2-ylmethyl)piperazin-1-yl]ethyl]-N-[(4-methoxyphenyl)methyl]propan-1-amine

> <PUBCHEM_IUPAC_CAS_NAME>
N-[2-[4-(1H-indol-2-ylmethyl)-1-piperazinyl]ethyl]-N-[(4-methoxyphenyl)methyl]-1-propanamine

> <PUBCHEM_IUPAC_NAME_MARKUP>
<I>N</I>-[2-[4-(1<I>H</I>-indol-2-ylmethyl)piperazin-1-yl]ethyl]-<I>N</I>-[(4-methoxyphenyl)methyl]propan-1-amine

> <PUBCHEM_IUPAC_NAME>
N-[2-[4-(1H-indol-2-ylmethyl)piperazin-1-yl]ethyl]-N-[(4-methoxyphenyl)methyl]propan-1-amine

> <PUBCHEM_IUPAC_SYSTEMATIC_NAME>
N-[2-[4-(1H-indol-2-ylmethyl)piperazin-1-yl]ethyl]-N-[(4-methoxyphenyl)methyl]propan-1-amine

> <PUBCHEM_IUPAC_TRADITIONAL_NAME>
2-[4-(1H-indol-2-ylmethyl)piperazino]ethyl-p-anisyl-propyl-amine

> <PUBCHEM_IUPAC_INCHI>
InChI=1S/C26H36N4O/c1-3-12-29(20-22-8-10-25(31-2)11-9-22)16-13-28-14-17-30(18-15-28)21-24-19-23-6-4-5-7-26(23)27-24/h4-11,19,27H,3,12-18,20-21H2,1-2H3

> <PUBCHEM_IUPAC_INCHIKEY>
WMJUHVXPQPZNMA-UHFFFAOYSA-N

> <PUBCHEM_XLOGP3_AA>
4.1

> <PUBCHEM_EXACT_MASS>
420.28891178

> <PUBCHEM_MOLECULAR_FORMULA>
C26H36N4O

> <PUBCHEM_MOLECULAR_WEIGHT>
420.6

> <PUBCHEM_OPENEYE_CAN_SMILES>
CCCN(CCN1CCN(CC1)CC2=CC3=CC=CC=C3N2)CC4=CC=C(C=C4)OC

> <PUBCHEM_OPENEYE_ISO_SMILES>
CCCN(CCN1CCN(CC1)CC2=CC3=CC=CC=C3N2)CC4=CC=C(C=C4)OC

> <PUBCHEM_CACTVS_TPSA>
34.7

> <PUBCHEM_MONOISOTOPIC_WEIGHT>
420.28891178

> <PUBCHEM_TOTAL_CHARGE>
0

> <PUBCHEM_HEAVY_ATOM_COUNT>
31

> <PUBCHEM_ATOM_DEF_STEREO_COUNT>
0

> <PUBCHEM_ATOM_UDEF_STEREO_COUNT>
0

> <PUBCHEM_BOND_DEF_STEREO_COUNT>
0

> <PUBCHEM_BOND_UDEF_STEREO_COUNT>
0

> <PUBCHEM_ISOTOPIC_ATOM_COUNT>
0

> <PUBCHEM_COMPONENT_COUNT>
1

> <PUBCHEM_CACTVS_TAUTO_COUNT>
-1

> <PUBCHEM_COORDINATE_TYPE>
1
5
255

> <PUBCHEM_BONDANNOTATIONS>
13  16  8
16  19  8
18  19  8
18  22  8
19  23  8
20  24  8
20  25  8
22  26  8
23  27  8
24  28  8
25  29  8
26  27  8
28  30  8
29  30  8
5  13  8
5  18  8

$$$$
