19592121
  -OEChem-09292322212D

 73 76  0     1  0  0  0  0  0999 V2000
   15.8728   -2.5123    0.0000 O   0  0  0  0  0  0  0  0  0  0  0  0
    7.1962    1.5223    0.0000 O   0  0  0  0  0  0  0  0  0  0  0  0
   12.3923    0.5223    0.0000 N   0  0  3  0  0  0  0  0  0  0  0  0
    8.0622    0.0223    0.0000 N   0  0  0  0  0  0  0  0  0  0  0  0
   13.2583    0.0223    0.0000 C   0  0  3  0  0  0  0  0  0  0  0  0
   13.2583   -0.9777    0.0000 C   0  0  0  0  0  0  0  0  0  0  0  0
   14.1244    0.5223    0.0000 C   0  0  0  0  0  0  0  0  0  0  0  0
   14.1244   -1.4777    0.0000 C   0  0  0  0  0  0  0  0  0  0  0  0
   14.9904    0.0223    0.0000 C   0  0  0  0  0  0  0  0  0  0  0  0
   14.9904   -0.9777    0.0000 C   0  0  0  0  0  0  0  0  0  0  0  0
   11.5263    0.0223    0.0000 C   0  0  0  0  0  0  0  0  0  0  0  0
   12.3923    1.5223    0.0000 C   0  0  0  0  0  0  0  0  0  0  0  0
   10.6603    0.5223    0.0000 C   0  0  0  0  0  0  0  0  0  0  0  0
   15.8843   -1.5124    0.0000 C   0  0  0  0  0  0  0  0  0  0  0  0
   11.5263    2.0223    0.0000 C   0  0  0  0  0  0  0  0  0  0  0  0
   15.8843    0.5569    0.0000 C   0  0  0  0  0  0  0  0  0  0  0  0
    9.7942    0.0223    0.0000 C   0  0  0  0  0  0  0  0  0  0  0  0
   16.7904   -0.9985    0.0000 C   0  0  0  0  0  0  0  0  0  0  0  0
   16.7904    0.0431    0.0000 C   0  0  0  0  0  0  0  0  0  0  0  0
   11.5263    3.0223    0.0000 C   0  0  0  0  0  0  0  0  0  0  0  0
    8.9282    0.5223    0.0000 C   0  0  0  0  0  0  0  0  0  0  0  0
   16.7329   -3.0223    0.0000 C   0  0  0  0  0  0  0  0  0  0  0  0
    7.1962    0.5223    0.0000 C   0  0  0  0  0  0  0  0  0  0  0  0
    6.3301    0.0223    0.0000 C   0  0  0  0  0  0  0  0  0  0  0  0
    5.4641    0.5223    0.0000 C   0  0  0  0  0  0  0  0  0  0  0  0
    6.3301   -0.9777    0.0000 C   0  0  0  0  0  0  0  0  0  0  0  0
    4.5981   -0.9777    0.0000 C   0  0  0  0  0  0  0  0  0  0  0  0
    4.5981    0.0223    0.0000 C   0  0  0  0  0  0  0  0  0  0  0  0
    5.4641   -1.4777    0.0000 C   0  0  0  0  0  0  0  0  0  0  0  0
    3.7320   -1.4777    0.0000 C   0  0  0  0  0  0  0  0  0  0  0  0
    2.8660   -0.9777    0.0000 C   0  0  0  0  0  0  0  0  0  0  0  0
    3.7320   -2.4777    0.0000 C   0  0  0  0  0  0  0  0  0  0  0  0
    2.0000   -1.4777    0.0000 C   0  0  0  0  0  0  0  0  0  0  0  0
    2.8660   -2.9777    0.0000 C   0  0  0  0  0  0  0  0  0  0  0  0
    2.0000   -2.4777    0.0000 C   0  0  0  0  0  0  0  0  0  0  0  0
   13.2583    0.6423    0.0000 H   0  0  0  0  0  0  0  0  0  0  0  0
   12.6477   -0.8701    0.0000 H   0  0  0  0  0  0  0  0  0  0  0  0
   13.0463   -1.5603    0.0000 H   0  0  0  0  0  0  0  0  0  0  0  0
   14.5229    0.9972    0.0000 H   0  0  0  0  0  0  0  0  0  0  0  0
   13.7258    0.9972    0.0000 H   0  0  0  0  0  0  0  0  0  0  0  0
   13.7258   -1.9527    0.0000 H   0  0  0  0  0  0  0  0  0  0  0  0
   14.5229   -1.9527    0.0000 H   0  0  0  0  0  0  0  0  0  0  0  0
   11.1278   -0.4527    0.0000 H   0  0  0  0  0  0  0  0  0  0  0  0
   11.9248   -0.4527    0.0000 H   0  0  0  0  0  0  0  0  0  0  0  0
   13.0029    1.4146    0.0000 H   0  0  0  0  0  0  0  0  0  0  0  0
   12.6044    2.1049    0.0000 H   0  0  0  0  0  0  0  0  0  0  0  0
   11.0588    0.9972    0.0000 H   0  0  0  0  0  0  0  0  0  0  0  0
   10.2617    0.9972    0.0000 H   0  0  0  0  0  0  0  0  0  0  0  0
   10.9157    2.1300    0.0000 H   0  0  0  0  0  0  0  0  0  0  0  0
   11.3142    1.4397    0.0000 H   0  0  0  0  0  0  0  0  0  0  0  0
   15.8772    1.1769    0.0000 H   0  0  0  0  0  0  0  0  0  0  0  0
    9.3957   -0.4527    0.0000 H   0  0  0  0  0  0  0  0  0  0  0  0
   10.1928   -0.4527    0.0000 H   0  0  0  0  0  0  0  0  0  0  0  0
   17.3261   -1.3106    0.0000 H   0  0  0  0  0  0  0  0  0  0  0  0
   17.3261    0.3552    0.0000 H   0  0  0  0  0  0  0  0  0  0  0  0
   12.1463    3.0223    0.0000 H   0  0  0  0  0  0  0  0  0  0  0  0
   11.5263    3.6423    0.0000 H   0  0  0  0  0  0  0  0  0  0  0  0
   10.9063    3.0223    0.0000 H   0  0  0  0  0  0  0  0  0  0  0  0
    9.3267    0.9972    0.0000 H   0  0  0  0  0  0  0  0  0  0  0  0
    8.5297    0.9972    0.0000 H   0  0  0  0  0  0  0  0  0  0  0  0
    8.0622   -0.5977    0.0000 H   0  0  0  0  0  0  0  0  0  0  0  0
   16.4168   -3.5556    0.0000 H   0  0  0  0  0  0  0  0  0  0  0  0
   17.2663   -3.3385    0.0000 H   0  0  0  0  0  0  0  0  0  0  0  0
   17.0491   -2.4890    0.0000 H   0  0  0  0  0  0  0  0  0  0  0  0
    5.4641    1.1423    0.0000 H   0  0  0  0  0  0  0  0  0  0  0  0
    6.8671   -1.2877    0.0000 H   0  0  0  0  0  0  0  0  0  0  0  0
    4.0611    0.3323    0.0000 H   0  0  0  0  0  0  0  0  0  0  0  0
    5.4641   -2.0977    0.0000 H   0  0  0  0  0  0  0  0  0  0  0  0
    2.8660   -0.3577    0.0000 H   0  0  0  0  0  0  0  0  0  0  0  0
    4.2690   -2.7877    0.0000 H   0  0  0  0  0  0  0  0  0  0  0  0
    1.4631   -1.1677    0.0000 H   0  0  0  0  0  0  0  0  0  0  0  0
    2.8660   -3.5977    0.0000 H   0  0  0  0  0  0  0  0  0  0  0  0
    1.4631   -2.7877    0.0000 H   0  0  0  0  0  0  0  0  0  0  0  0
  1 14  1  0  0  0  0
  1 22  1  0  0  0  0
  2 23  2  0  0  0  0
  3  5  1  0  0  0  0
  3 11  1  0  0  0  0
  3 12  1  0  0  0  0
  4 21  1  0  0  0  0
  4 23  1  0  0  0  0
  4 61  1  0  0  0  0
  5  6  1  0  0  0  0
  5  7  1  0  0  0  0
  5 36  1  0  0  0  0
  6  8  1  0  0  0  0
  6 37  1  0  0  0  0
  6 38  1  0  0  0  0
  7  9  1  0  0  0  0
  7 39  1  0  0  0  0
  7 40  1  0  0  0  0
  8 10  1  0  0  0  0
  8 41  1  0  0  0  0
  8 42  1  0  0  0  0
  9 10  2  0  0  0  0
  9 16  1  0  0  0  0
 10 14  1  0  0  0  0
 11 13  1  0  0  0  0
 11 43  1  0  0  0  0
 11 44  1  0  0  0  0
 12 15  1  0  0  0  0
 12 45  1  0  0  0  0
 12 46  1  0  0  0  0
 13 17  1  0  0  0  0
 13 47  1  0  0  0  0
 13 48  1  0  0  0  0
 14 18  2  0  0  0  0
 15 20  1  0  0  0  0
 15 49  1  0  0  0  0
 15 50  1  0  0  0  0
 16 19  2  0  0  0  0
 16 51  1  0  0  0  0
 17 21  1  0  0  0  0
 17 52  1  0  0  0  0
 17 53  1  0  0  0  0
 18 19  1  0  0  0  0
 18 54  1  0  0  0  0
 19 55  1  0  0  0  0
 20 56  1  0  0  0  0
 20 57  1  0  0  0  0
 20 58  1  0  0  0  0
 21 59  1  0  0  0  0
 21 60  1  0  0  0  0
 22 62  1  0  0  0  0
 22 63  1  0  0  0  0
 22 64  1  0  0  0  0
 23 24  1  0  0  0  0
 24 25  2  0  0  0  0
 24 26  1  0  0  0  0
 25 28  1  0  0  0  0
 25 65  1  0  0  0  0
 26 29  2  0  0  0  0
 26 66  1  0  0  0  0
 27 28  2  0  0  0  0
 27 29  1  0  0  0  0
 27 30  1  0  0  0  0
 28 67  1  0  0  0  0
 29 68  1  0  0  0  0
 30 31  2  0  0  0  0
 30 32  1  0  0  0  0
 31 33  1  0  0  0  0
 31 69  1  0  0  0  0
 32 34  2  0  0  0  0
 32 70  1  0  0  0  0
 33 35  2  0  0  0  0
 33 71  1  0  0  0  0
 34 35  1  0  0  0  0
 34 72  1  0  0  0  0
 35 73  1  0  0  0  0
M  END
> <PUBCHEM_COMPOUND_CID>
19592121

> <PUBCHEM_COMPOUND_CANONICALIZED>
1

> <PUBCHEM_CACTVS_COMPLEXITY>
611

> <PUBCHEM_CACTVS_HBOND_ACCEPTOR>
3

> <PUBCHEM_CACTVS_HBOND_DONOR>
1

> <PUBCHEM_CACTVS_ROTATABLE_BOND>
11

> <PUBCHEM_CACTVS_SUBSKEYS>
AAADcfB7MAAAAAAAAAAAAAAAAAAAAAAAAAAwYMGAAAAAAADBUAAAHgAQAAAADCzBmAYyBoPABACIAiFSEACCCAAkIAAIiIEODMgMJjKEtRuEMShk1hGIqYeY2POOwAABAAAYAACQAAKAADAAAAAAAAAAAA==

> <PUBCHEM_IUPAC_OPENEYE_NAME>
N-[4-[(5-methoxytetralin-2-yl)-propyl-amino]butyl]-4-phenyl-benzamide

> <PUBCHEM_IUPAC_CAS_NAME>
N-[4-[(5-methoxy-1,2,3,4-tetrahydronaphthalen-2-yl)-propylamino]butyl]-4-phenylbenzamide

> <PUBCHEM_IUPAC_NAME_MARKUP>
<I>N</I>-[4-[(5-methoxy-1,2,3,4-tetrahydronaphthalen-2-yl)-propylamino]butyl]-4-phenylbenzamide

> <PUBCHEM_IUPAC_NAME>
N-[4-[(5-methoxy-1,2,3,4-tetrahydronaphthalen-2-yl)-propylamino]butyl]-4-phenylbenzamide

> <PUBCHEM_IUPAC_SYSTEMATIC_NAME>
N-[4-[(5-methoxy-1,2,3,4-tetrahydronaphthalen-2-yl)-propyl-amino]butyl]-4-phenyl-benzamide

> <PUBCHEM_IUPAC_TRADITIONAL_NAME>
N-[4-[(5-methoxytetralin-2-yl)-propyl-amino]butyl]-4-phenyl-benzamide

> <PUBCHEM_IUPAC_INCHI>
InChI=1S/C31H38N2O2/c1-3-21-33(28-18-19-29-27(23-28)12-9-13-30(29)35-2)22-8-7-20-32-31(34)26-16-14-25(15-17-26)24-10-5-4-6-11-24/h4-6,9-17,28H,3,7-8,18-23H2,1-2H3,(H,32,34)

> <PUBCHEM_IUPAC_INCHIKEY>
LVSUPYDDQCSHAN-UHFFFAOYSA-N

> <PUBCHEM_XLOGP3_AA>
6.9

> <PUBCHEM_EXACT_MASS>
470.293328459

> <PUBCHEM_MOLECULAR_FORMULA>
C31H38N2O2

> <PUBCHEM_MOLECULAR_WEIGHT>
470.6

> <PUBCHEM_OPENEYE_CAN_SMILES>
CCCN(CCCCNC(=O)C1=CC=C(C=C1)C2=CC=CC=C2)C3CCC4=C(C3)C=CC=C4OC

> <PUBCHEM_OPENEYE_ISO_SMILES>
CCCN(CCCCNC(=O)C1=CC=C(C=C1)C2=CC=CC=C2)C3CCC4=C(C3)C=CC=C4OC

> <PUBCHEM_CACTVS_TPSA>
41.6

> <PUBCHEM_MONOISOTOPIC_WEIGHT>
470.293328459

> <PUBCHEM_TOTAL_CHARGE>
0

> <PUBCHEM_HEAVY_ATOM_COUNT>
35

> <PUBCHEM_ATOM_DEF_STEREO_COUNT>
0

> <PUBCHEM_ATOM_UDEF_STEREO_COUNT>
1

> <PUBCHEM_BOND_DEF_STEREO_COUNT>
0

> <PUBCHEM_BOND_UDEF_STEREO_COUNT>
0

> <PUBCHEM_ISOTOPIC_ATOM_COUNT>
0

> <PUBCHEM_COMPONENT_COUNT>
1

> <PUBCHEM_CACTVS_TAUTO_COUNT>
-1

> <PUBCHEM_COORDINATE_TYPE>
1
5
255

> <PUBCHEM_BONDANNOTATIONS>
10  14  8
14  18  8
16  19  8
18  19  8
24  25  8
24  26  8
25  28  8
26  29  8
27  28  8
27  29  8
5  3  3
30  31  8
30  32  8
31  33  8
32  34  8
33  35  8
34  35  8
9  10  8
9  16  8

$$$$
