46180261
  -OEChem-09292322482D

 52 55  0     1  0  0  0  0  0999 V2000
    3.7088    1.7590    0.0000 O   0  0  0  0  0  0  0  0  0  0  0  0
    7.1815   -1.2725    0.0000 N   0  0  3  0  0  0  0  0  0  0  0  0
    6.3232   -0.7756    0.0000 C   0  0  1  0  0  0  0  0  0  0  0  0
    6.3232    0.2244    0.0000 C   0  0  0  0  0  0  0  0  0  0  0  0
    5.4572   -1.2756    0.0000 C   0  0  0  0  0  0  0  0  0  0  0  0
    8.0469   -0.7884    0.0000 C   0  0  0  0  0  0  0  0  0  0  0  0
    7.2332    0.7312    0.0000 C   0  0  0  0  0  0  0  0  0  0  0  0
    8.0726    0.2030    0.0000 C   0  0  0  0  0  0  0  0  0  0  0  0
    5.4572    0.7244    0.0000 C   0  0  0  0  0  0  0  0  0  0  0  0
    4.5912   -0.7756    0.0000 C   0  0  0  0  0  0  0  0  0  0  0  0
    7.1740   -2.2725    0.0000 C   0  0  0  0  0  0  0  0  0  0  0  0
    4.5912    0.2244    0.0000 C   0  0  0  0  0  0  0  0  0  0  0  0
    7.2413    1.7728    0.0000 C   0  0  0  0  0  0  0  0  0  0  0  0
    5.4412    1.7659    0.0000 C   0  0  0  0  0  0  0  0  0  0  0  0
    8.0364   -2.7789    0.0000 C   0  0  0  0  0  0  0  0  0  0  0  0
    3.6972    0.7591    0.0000 C   0  0  0  0  0  0  0  0  0  0  0  0
    3.6972   -1.3103    0.0000 C   0  0  0  0  0  0  0  0  0  0  0  0
    6.3392    2.2936    0.0000 C   0  0  0  0  0  0  0  0  0  0  0  0
    2.7912    0.2452    0.0000 C   0  0  0  0  0  0  0  0  0  0  0  0
    2.7912   -0.7964    0.0000 C   0  0  0  0  0  0  0  0  0  0  0  0
    8.0290   -3.7789    0.0000 C   0  0  0  0  0  0  0  0  0  0  0  0
    2.8486    2.2690    0.0000 C   0  0  0  0  0  0  0  0  0  0  0  0
    2.8602    3.2689    0.0000 C   0  0  0  0  0  0  0  0  0  0  0  0
    2.0000    3.7789    0.0000 C   0  0  0  0  0  0  0  0  0  0  0  0
    3.7319    3.7588    0.0000 C   0  0  0  0  0  0  0  0  0  0  0  0
    6.3227   -1.6256    0.0000 H   0  0  0  0  0  0  0  0  0  0  0  0
    5.0587   -1.7506    0.0000 H   0  0  0  0  0  0  0  0  0  0  0  0
    5.8557   -1.7506    0.0000 H   0  0  0  0  0  0  0  0  0  0  0  0
    8.2487   -1.3746    0.0000 H   0  0  0  0  0  0  0  0  0  0  0  0
    8.6597   -0.6940    0.0000 H   0  0  0  0  0  0  0  0  0  0  0  0
    8.6796    0.0771    0.0000 H   0  0  0  0  0  0  0  0  0  0  0  0
    8.3043    0.7781    0.0000 H   0  0  0  0  0  0  0  0  0  0  0  0
    6.5643   -2.1603    0.0000 H   0  0  0  0  0  0  0  0  0  0  0  0
    6.9577   -2.8535    0.0000 H   0  0  0  0  0  0  0  0  0  0  0  0
    7.7794    2.0808    0.0000 H   0  0  0  0  0  0  0  0  0  0  0  0
    4.9007    2.0697    0.0000 H   0  0  0  0  0  0  0  0  0  0  0  0
    8.6461   -2.8911    0.0000 H   0  0  0  0  0  0  0  0  0  0  0  0
    8.2527   -2.1979    0.0000 H   0  0  0  0  0  0  0  0  0  0  0  0
    3.7044   -1.9302    0.0000 H   0  0  0  0  0  0  0  0  0  0  0  0
    6.3368    2.9136    0.0000 H   0  0  0  0  0  0  0  0  0  0  0  0
    2.2554    0.5573    0.0000 H   0  0  0  0  0  0  0  0  0  0  0  0
    2.2554   -1.1085    0.0000 H   0  0  0  0  0  0  0  0  0  0  0  0
    7.4090   -3.7743    0.0000 H   0  0  0  0  0  0  0  0  0  0  0  0
    8.0244   -4.3989    0.0000 H   0  0  0  0  0  0  0  0  0  0  0  0
    8.6489   -3.7835    0.0000 H   0  0  0  0  0  0  0  0  0  0  0  0
    2.2393    2.3837    0.0000 H   0  0  0  0  0  0  0  0  0  0  0  0
    2.6298    1.6888    0.0000 H   0  0  0  0  0  0  0  0  0  0  0  0
    2.3162    4.3122    0.0000 H   0  0  0  0  0  0  0  0  0  0  0  0
    1.4667    4.0951    0.0000 H   0  0  0  0  0  0  0  0  0  0  0  0
    1.6838    3.2456    0.0000 H   0  0  0  0  0  0  0  0  0  0  0  0
    4.2652    3.4427    0.0000 H   0  0  0  0  0  0  0  0  0  0  0  0
    3.7391    4.3788    0.0000 H   0  0  0  0  0  0  0  0  0  0  0  0
  1 16  1  0  0  0  0
  1 22  1  0  0  0  0
  2  3  1  0  0  0  0
  2  6  1  0  0  0  0
  2 11  1  0  0  0  0
  3  4  1  0  0  0  0
  3  5  1  0  0  0  0
  3 26  1  1  0  0  0
  4  7  2  0  0  0  0
  4  9  1  0  0  0  0
  5 10  1  0  0  0  0
  5 27  1  0  0  0  0
  5 28  1  0  0  0  0
  6  8  1  0  0  0  0
  6 29  1  0  0  0  0
  6 30  1  0  0  0  0
  7  8  1  0  0  0  0
  7 13  1  0  0  0  0
  8 31  1  0  0  0  0
  8 32  1  0  0  0  0
  9 12  1  0  0  0  0
  9 14  2  0  0  0  0
 10 12  2  0  0  0  0
 10 17  1  0  0  0  0
 11 15  1  0  0  0  0
 11 33  1  0  0  0  0
 11 34  1  0  0  0  0
 12 16  1  0  0  0  0
 13 18  2  0  0  0  0
 13 35  1  0  0  0  0
 14 18  1  0  0  0  0
 14 36  1  0  0  0  0
 15 21  1  0  0  0  0
 15 37  1  0  0  0  0
 15 38  1  0  0  0  0
 16 19  2  0  0  0  0
 17 20  2  0  0  0  0
 17 39  1  0  0  0  0
 18 40  1  0  0  0  0
 19 20  1  0  0  0  0
 19 41  1  0  0  0  0
 20 42  1  0  0  0  0
 21 43  1  0  0  0  0
 21 44  1  0  0  0  0
 21 45  1  0  0  0  0
 22 23  1  0  0  0  0
 22 46  1  0  0  0  0
 22 47  1  0  0  0  0
 23 24  1  0  0  0  0
 23 25  2  0  0  0  0
 24 48  1  0  0  0  0
 24 49  1  0  0  0  0
 24 50  1  0  0  0  0
 25 51  1  0  0  0  0
 25 52  1  0  0  0  0
M  END
> <PUBCHEM_COMPOUND_CID>
46180261

> <PUBCHEM_COMPOUND_CANONICALIZED>
1

> <PUBCHEM_CACTVS_COMPLEXITY>
475

> <PUBCHEM_CACTVS_HBOND_ACCEPTOR>
2

> <PUBCHEM_CACTVS_HBOND_DONOR>
0

> <PUBCHEM_CACTVS_ROTATABLE_BOND>
5

> <PUBCHEM_CACTVS_SUBSKEYS>
AAADceB6IAAAAAAAAAAAAAAAAAAAAAAAAAA8YMEAAAAAAADxQAAAHgAAAAAADCzhmAYyBoMABACAAiBCAACCCAAgIAAIiAAODIgMJiKEsRuGOCjkwBGIqAeQ0PMOgAADAAAYAACQAAaAADQAAAAAAAAAAA==

> <PUBCHEM_IUPAC_OPENEYE_NAME>
(6aR)-11-(2-methylallyloxy)-6-propyl-5,6,6a,7-tetrahydro-4H-dibenzo[de,g]quinoline

> <PUBCHEM_IUPAC_CAS_NAME>
(6aR)-11-(2-methylprop-2-enoxy)-6-propyl-5,6,6a,7-tetrahydro-4H-dibenzo[de,g]quinoline

> <PUBCHEM_IUPAC_NAME_MARKUP>
(6<I>a</I><I>R</I>)-11-(2-methylprop-2-enoxy)-6-propyl-5,6,6<I>a</I>,7-tetrahydro-4<I>H</I>-dibenzo[de,g]quinoline

> <PUBCHEM_IUPAC_NAME>
(6aR)-11-(2-methylprop-2-enoxy)-6-propyl-5,6,6a,7-tetrahydro-4H-dibenzo[de,g]quinoline

> <PUBCHEM_IUPAC_SYSTEMATIC_NAME>
(6aR)-11-(2-methylprop-2-enoxy)-6-propyl-5,6,6a,7-tetrahydro-4H-dibenzo[de,g]quinoline

> <PUBCHEM_IUPAC_TRADITIONAL_NAME>
(6aR)-11-(2-methylallyloxy)-6-propyl-5,6,6a,7-tetrahydro-4H-dibenzo[de,g]quinoline

> <PUBCHEM_IUPAC_INCHI>
InChI=1S/C23H27NO/c1-4-12-24-13-11-17-7-5-9-19-22(17)20(24)14-18-8-6-10-21(23(18)19)25-15-16(2)3/h5-10,20H,2,4,11-15H2,1,3H3/t20-/m1/s1

> <PUBCHEM_IUPAC_INCHIKEY>
WXASTKWPMXGNLN-HXUWFJFHSA-N

> <PUBCHEM_XLOGP3_AA>
5.6

> <PUBCHEM_EXACT_MASS>
333.209264485

> <PUBCHEM_MOLECULAR_FORMULA>
C23H27NO

> <PUBCHEM_MOLECULAR_WEIGHT>
333.5

> <PUBCHEM_OPENEYE_CAN_SMILES>
CCCN1CCC2=C3C1CC4=C(C3=CC=C2)C(=CC=C4)OCC(=C)C

> <PUBCHEM_OPENEYE_ISO_SMILES>
CCCN1CCC2=C3[C@H]1CC4=C(C3=CC=C2)C(=CC=C4)OCC(=C)C

> <PUBCHEM_CACTVS_TPSA>
12.5

> <PUBCHEM_MONOISOTOPIC_WEIGHT>
333.209264485

> <PUBCHEM_TOTAL_CHARGE>
0

> <PUBCHEM_HEAVY_ATOM_COUNT>
25

> <PUBCHEM_ATOM_DEF_STEREO_COUNT>
1

> <PUBCHEM_ATOM_UDEF_STEREO_COUNT>
0

> <PUBCHEM_BOND_DEF_STEREO_COUNT>
0

> <PUBCHEM_BOND_UDEF_STEREO_COUNT>
0

> <PUBCHEM_ISOTOPIC_ATOM_COUNT>
0

> <PUBCHEM_COMPONENT_COUNT>
1

> <PUBCHEM_CACTVS_TAUTO_COUNT>
-1

> <PUBCHEM_COORDINATE_TYPE>
1
5
255

> <PUBCHEM_BONDANNOTATIONS>
10  12  8
10  17  8
12  16  8
13  18  8
14  18  8
16  19  8
17  20  8
19  20  8
3  26  5
4  7  8
4  9  8
7  13  8
9  14  8

$$$$
