57390119
  -OEChem-09292322322D

146151  0     0  0  0  0  0  0999 V2000
   23.6506   15.5000    0.0000 O   0  0  0  0  0  0  0  0  0  0  0  0
    2.8660  -15.5000    0.0000 O   0  0  0  0  0  0  0  0  0  0  0  0
   21.0526    8.0000    0.0000 O   0  0  0  0  0  0  0  0  0  0  0  0
    5.4641   -8.0000    0.0000 O   0  0  0  0  0  0  0  0  0  0  0  0
   16.7224    5.5000    0.0000 O   0  0  0  0  0  0  0  0  0  0  0  0
    9.7942   -5.5000    0.0000 O   0  0  0  0  0  0  0  0  0  0  0  0
   14.9904    3.5000    0.0000 O   0  0  0  0  0  0  0  0  0  0  0  0
   11.5263   -3.5000    0.0000 O   0  0  0  0  0  0  0  0  0  0  0  0
   14.1244    1.0000    0.0000 O   0  0  0  0  0  0  0  0  0  0  0  0
   12.3923   -1.0000    0.0000 O   0  0  0  0  0  0  0  0  0  0  0  0
   21.9186   12.5000    0.0000 N   0  0  0  0  0  0  0  0  0  0  0  0
    4.5981  -12.5000    0.0000 N   0  0  0  0  0  0  0  0  0  0  0  0
   21.9186   14.5000    0.0000 N   0  0  0  0  0  0  0  0  0  0  0  0
    4.5981  -14.5000    0.0000 N   0  0  0  0  0  0  0  0  0  0  0  0
   20.1865    9.5000    0.0000 N   0  0  0  0  0  0  0  0  0  0  0  0
    6.3301   -9.5000    0.0000 N   0  0  0  0  0  0  0  0  0  0  0  0
   22.7846   13.0000    0.0000 C   0  0  0  0  0  0  0  0  0  0  0  0
   21.0526   13.0000    0.0000 C   0  0  0  0  0  0  0  0  0  0  0  0
    5.4641  -13.0000    0.0000 C   0  0  0  0  0  0  0  0  0  0  0  0
    3.7320  -13.0000    0.0000 C   0  0  0  0  0  0  0  0  0  0  0  0
   22.7846   14.0000    0.0000 C   0  0  0  0  0  0  0  0  0  0  0  0
   21.0526   14.0000    0.0000 C   0  0  0  0  0  0  0  0  0  0  0  0
    5.4641  -14.0000    0.0000 C   0  0  0  0  0  0  0  0  0  0  0  0
    3.7320  -14.0000    0.0000 C   0  0  0  0  0  0  0  0  0  0  0  0
   21.9186   11.5000    0.0000 C   0  0  0  0  0  0  0  0  0  0  0  0
    4.5981  -11.5000    0.0000 C   0  0  0  0  0  0  0  0  0  0  0  0
   21.0526   11.0000    0.0000 C   0  0  0  0  0  0  0  0  0  0  0  0
    5.4641  -11.0000    0.0000 C   0  0  0  0  0  0  0  0  0  0  0  0
   21.9186   15.5000    0.0000 C   0  0  0  0  0  0  0  0  0  0  0  0
    4.5981  -15.5000    0.0000 C   0  0  0  0  0  0  0  0  0  0  0  0
   21.0526   10.0000    0.0000 C   0  0  0  0  0  0  0  0  0  0  0  0
    5.4641  -10.0000    0.0000 C   0  0  0  0  0  0  0  0  0  0  0  0
   22.7846   16.0000    0.0000 C   0  0  0  0  0  0  0  0  0  0  0  0
    3.7320  -16.0000    0.0000 C   0  0  0  0  0  0  0  0  0  0  0  0
   21.0526   16.0000    0.0000 C   0  0  0  0  0  0  0  0  0  0  0  0
    5.4641  -16.0000    0.0000 C   0  0  0  0  0  0  0  0  0  0  0  0
   22.7846   17.0000    0.0000 C   0  0  0  0  0  0  0  0  0  0  0  0
    3.7320  -17.0000    0.0000 C   0  0  0  0  0  0  0  0  0  0  0  0
   21.0526   17.0000    0.0000 C   0  0  0  0  0  0  0  0  0  0  0  0
    5.4641  -17.0000    0.0000 C   0  0  0  0  0  0  0  0  0  0  0  0
   21.9186   17.5000    0.0000 C   0  0  0  0  0  0  0  0  0  0  0  0
    4.5981  -17.5000    0.0000 C   0  0  0  0  0  0  0  0  0  0  0  0
   20.1865    8.5000    0.0000 C   0  0  0  0  0  0  0  0  0  0  0  0
    6.3301   -8.5000    0.0000 C   0  0  0  0  0  0  0  0  0  0  0  0
   24.5167   16.0000    0.0000 C   0  0  0  0  0  0  0  0  0  0  0  0
    2.0000  -16.0000    0.0000 C   0  0  0  0  0  0  0  0  0  0  0  0
   19.3205    8.0000    0.0000 C   0  0  0  0  0  0  0  0  0  0  0  0
    7.1962   -8.0000    0.0000 C   0  0  0  0  0  0  0  0  0  0  0  0
   19.3205    7.0000    0.0000 C   0  0  0  0  0  0  0  0  0  0  0  0
    7.1962   -7.0000    0.0000 C   0  0  0  0  0  0  0  0  0  0  0  0
   18.4545    8.5000    0.0000 C   0  0  0  0  0  0  0  0  0  0  0  0
    8.0622   -8.5000    0.0000 C   0  0  0  0  0  0  0  0  0  0  0  0
   18.4545    6.5000    0.0000 C   0  0  0  0  0  0  0  0  0  0  0  0
    8.0622   -6.5000    0.0000 C   0  0  0  0  0  0  0  0  0  0  0  0
   17.5885    8.0000    0.0000 C   0  0  0  0  0  0  0  0  0  0  0  0
    8.9282   -8.0000    0.0000 C   0  0  0  0  0  0  0  0  0  0  0  0
   17.5885    7.0000    0.0000 C   0  0  0  0  0  0  0  0  0  0  0  0
    8.9282   -7.0000    0.0000 C   0  0  0  0  0  0  0  0  0  0  0  0
   16.7224    6.5000    0.0000 C   0  0  0  0  0  0  0  0  0  0  0  0
    9.7942   -6.5000    0.0000 C   0  0  0  0  0  0  0  0  0  0  0  0
   15.8564    5.0000    0.0000 C   0  0  0  0  0  0  0  0  0  0  0  0
   10.6603   -5.0000    0.0000 C   0  0  0  0  0  0  0  0  0  0  0  0
   15.8564    4.0000    0.0000 C   0  0  0  0  0  0  0  0  0  0  0  0
   10.6603   -4.0000    0.0000 C   0  0  0  0  0  0  0  0  0  0  0  0
   14.9904    2.5000    0.0000 C   0  0  0  0  0  0  0  0  0  0  0  0
   11.5263   -2.5000    0.0000 C   0  0  0  0  0  0  0  0  0  0  0  0
   14.1244    2.0000    0.0000 C   0  0  0  0  0  0  0  0  0  0  0  0
   12.3923   -2.0000    0.0000 C   0  0  0  0  0  0  0  0  0  0  0  0
   13.2583    0.5000    0.0000 C   0  0  0  0  0  0  0  0  0  0  0  0
   13.2583   -0.5000    0.0000 C   0  0  0  0  0  0  0  0  0  0  0  0
   22.9967   12.4174    0.0000 H   0  0  0  0  0  0  0  0  0  0  0  0
   23.3952   13.1077    0.0000 H   0  0  0  0  0  0  0  0  0  0  0  0
   20.4420   13.1077    0.0000 H   0  0  0  0  0  0  0  0  0  0  0  0
   20.8405   12.4174    0.0000 H   0  0  0  0  0  0  0  0  0  0  0  0
    6.0747  -13.1077    0.0000 H   0  0  0  0  0  0  0  0  0  0  0  0
    5.6762  -12.4174    0.0000 H   0  0  0  0  0  0  0  0  0  0  0  0
    3.5200  -12.4174    0.0000 H   0  0  0  0  0  0  0  0  0  0  0  0
    3.1215  -13.1077    0.0000 H   0  0  0  0  0  0  0  0  0  0  0  0
   23.3952   13.8923    0.0000 H   0  0  0  0  0  0  0  0  0  0  0  0
   22.9967   14.5826    0.0000 H   0  0  0  0  0  0  0  0  0  0  0  0
   20.8405   14.5826    0.0000 H   0  0  0  0  0  0  0  0  0  0  0  0
   20.4420   13.8923    0.0000 H   0  0  0  0  0  0  0  0  0  0  0  0
    5.6762  -14.5826    0.0000 H   0  0  0  0  0  0  0  0  0  0  0  0
    6.0747  -13.8923    0.0000 H   0  0  0  0  0  0  0  0  0  0  0  0
    3.1215  -13.8923    0.0000 H   0  0  0  0  0  0  0  0  0  0  0  0
    3.5200  -14.5826    0.0000 H   0  0  0  0  0  0  0  0  0  0  0  0
   22.1306   10.9174    0.0000 H   0  0  0  0  0  0  0  0  0  0  0  0
   22.5292   11.6077    0.0000 H   0  0  0  0  0  0  0  0  0  0  0  0
    4.3860  -10.9174    0.0000 H   0  0  0  0  0  0  0  0  0  0  0  0
    3.9875  -11.6077    0.0000 H   0  0  0  0  0  0  0  0  0  0  0  0
   20.8405   11.5826    0.0000 H   0  0  0  0  0  0  0  0  0  0  0  0
   20.4420   10.8923    0.0000 H   0  0  0  0  0  0  0  0  0  0  0  0
    5.6762  -11.5826    0.0000 H   0  0  0  0  0  0  0  0  0  0  0  0
    6.0747  -10.8923    0.0000 H   0  0  0  0  0  0  0  0  0  0  0  0
   21.2646    9.4174    0.0000 H   0  0  0  0  0  0  0  0  0  0  0  0
   21.6631   10.1077    0.0000 H   0  0  0  0  0  0  0  0  0  0  0  0
    5.2520   -9.4174    0.0000 H   0  0  0  0  0  0  0  0  0  0  0  0
    4.8535  -10.1077    0.0000 H   0  0  0  0  0  0  0  0  0  0  0  0
   20.5156   15.6900    0.0000 H   0  0  0  0  0  0  0  0  0  0  0  0
    6.0010  -15.6900    0.0000 H   0  0  0  0  0  0  0  0  0  0  0  0
   19.6496    9.8100    0.0000 H   0  0  0  0  0  0  0  0  0  0  0  0
    6.8671   -9.8100    0.0000 H   0  0  0  0  0  0  0  0  0  0  0  0
   23.3215   17.3100    0.0000 H   0  0  0  0  0  0  0  0  0  0  0  0
    3.1951  -17.3100    0.0000 H   0  0  0  0  0  0  0  0  0  0  0  0
   20.5156   17.3100    0.0000 H   0  0  0  0  0  0  0  0  0  0  0  0
    6.0010  -17.3100    0.0000 H   0  0  0  0  0  0  0  0  0  0  0  0
   21.9186   18.1200    0.0000 H   0  0  0  0  0  0  0  0  0  0  0  0
    4.5981  -18.1200    0.0000 H   0  0  0  0  0  0  0  0  0  0  0  0
   24.8267   15.4631    0.0000 H   0  0  0  0  0  0  0  0  0  0  0  0
   25.0536   16.3100    0.0000 H   0  0  0  0  0  0  0  0  0  0  0  0
   24.2067   16.5369    0.0000 H   0  0  0  0  0  0  0  0  0  0  0  0
    1.6900  -15.4631    0.0000 H   0  0  0  0  0  0  0  0  0  0  0  0
    1.4631  -16.3100    0.0000 H   0  0  0  0  0  0  0  0  0  0  0  0
    2.3100  -16.5369    0.0000 H   0  0  0  0  0  0  0  0  0  0  0  0
   19.8574    6.6900    0.0000 H   0  0  0  0  0  0  0  0  0  0  0  0
    6.6592   -6.6900    0.0000 H   0  0  0  0  0  0  0  0  0  0  0  0
   18.4545    9.1200    0.0000 H   0  0  0  0  0  0  0  0  0  0  0  0
    8.0622   -9.1200    0.0000 H   0  0  0  0  0  0  0  0  0  0  0  0
   18.4545    5.8800    0.0000 H   0  0  0  0  0  0  0  0  0  0  0  0
    8.0622   -5.8800    0.0000 H   0  0  0  0  0  0  0  0  0  0  0  0
   17.0515    8.3100    0.0000 H   0  0  0  0  0  0  0  0  0  0  0  0
    9.4651   -8.3100    0.0000 H   0  0  0  0  0  0  0  0  0  0  0  0
   16.5104    7.0826    0.0000 H   0  0  0  0  0  0  0  0  0  0  0  0
   16.1119    6.3923    0.0000 H   0  0  0  0  0  0  0  0  0  0  0  0
   10.0063   -7.0826    0.0000 H   0  0  0  0  0  0  0  0  0  0  0  0
   10.4048   -6.3923    0.0000 H   0  0  0  0  0  0  0  0  0  0  0  0
   15.6444    5.5826    0.0000 H   0  0  0  0  0  0  0  0  0  0  0  0
   15.2458    4.8923    0.0000 H   0  0  0  0  0  0  0  0  0  0  0  0
   10.8723   -5.5826    0.0000 H   0  0  0  0  0  0  0  0  0  0  0  0
   11.2708   -4.8923    0.0000 H   0  0  0  0  0  0  0  0  0  0  0  0
   16.0685    3.4174    0.0000 H   0  0  0  0  0  0  0  0  0  0  0  0
   16.4670    4.1077    0.0000 H   0  0  0  0  0  0  0  0  0  0  0  0
   10.4482   -3.4174    0.0000 H   0  0  0  0  0  0  0  0  0  0  0  0
   10.0497   -4.1077    0.0000 H   0  0  0  0  0  0  0  0  0  0  0  0
   15.2024    1.9174    0.0000 H   0  0  0  0  0  0  0  0  0  0  0  0
   15.6010    2.6077    0.0000 H   0  0  0  0  0  0  0  0  0  0  0  0
   11.3142   -1.9174    0.0000 H   0  0  0  0  0  0  0  0  0  0  0  0
   10.9157   -2.6077    0.0000 H   0  0  0  0  0  0  0  0  0  0  0  0
   13.9123    2.5826    0.0000 H   0  0  0  0  0  0  0  0  0  0  0  0
   13.5138    1.8923    0.0000 H   0  0  0  0  0  0  0  0  0  0  0  0
   12.6044   -2.5826    0.0000 H   0  0  0  0  0  0  0  0  0  0  0  0
   13.0029   -1.8923    0.0000 H   0  0  0  0  0  0  0  0  0  0  0  0
   13.0463    1.0826    0.0000 H   0  0  0  0  0  0  0  0  0  0  0  0
   12.6477    0.3923    0.0000 H   0  0  0  0  0  0  0  0  0  0  0  0
   13.4704   -1.0826    0.0000 H   0  0  0  0  0  0  0  0  0  0  0  0
   13.8689   -0.3923    0.0000 H   0  0  0  0  0  0  0  0  0  0  0  0
  1 33  1  0  0  0  0
  1 45  1  0  0  0  0
  2 34  1  0  0  0  0
  2 46  1  0  0  0  0
  3 43  2  0  0  0  0
  4 44  2  0  0  0  0
  5 59  1  0  0  0  0
  5 61  1  0  0  0  0
  6 60  1  0  0  0  0
  6 62  1  0  0  0  0
  7 63  1  0  0  0  0
  7 65  1  0  0  0  0
  8 64  1  0  0  0  0
  8 66  1  0  0  0  0
  9 67  1  0  0  0  0
  9 69  1  0  0  0  0
 10 68  1  0  0  0  0
 10 70  1  0  0  0  0
 11 17  1  0  0  0  0
 11 18  1  0  0  0  0
 11 25  1  0  0  0  0
 12 19  1  0  0  0  0
 12 20  1  0  0  0  0
 12 26  1  0  0  0  0
 13 21  1  0  0  0  0
 13 22  1  0  0  0  0
 13 29  1  0  0  0  0
 14 23  1  0  0  0  0
 14 24  1  0  0  0  0
 14 30  1  0  0  0  0
 15 31  1  0  0  0  0
 15 43  1  0  0  0  0
 15101  1  0  0  0  0
 16 32  1  0  0  0  0
 16 44  1  0  0  0  0
 16102  1  0  0  0  0
 17 21  1  0  0  0  0
 17 71  1  0  0  0  0
 17 72  1  0  0  0  0
 18 22  1  0  0  0  0
 18 73  1  0  0  0  0
 18 74  1  0  0  0  0
 19 23  1  0  0  0  0
 19 75  1  0  0  0  0
 19 76  1  0  0  0  0
 20 24  1  0  0  0  0
 20 77  1  0  0  0  0
 20 78  1  0  0  0  0
 21 79  1  0  0  0  0
 21 80  1  0  0  0  0
 22 81  1  0  0  0  0
 22 82  1  0  0  0  0
 23 83  1  0  0  0  0
 23 84  1  0  0  0  0
 24 85  1  0  0  0  0
 24 86  1  0  0  0  0
 25 27  1  0  0  0  0
 25 87  1  0  0  0  0
 25 88  1  0  0  0  0
 26 28  1  0  0  0  0
 26 89  1  0  0  0  0
 26 90  1  0  0  0  0
 27 31  1  0  0  0  0
 27 91  1  0  0  0  0
 27 92  1  0  0  0  0
 28 32  1  0  0  0  0
 28 93  1  0  0  0  0
 28 94  1  0  0  0  0
 29 33  1  0  0  0  0
 29 35  2  0  0  0  0
 30 34  1  0  0  0  0
 30 36  2  0  0  0  0
 31 95  1  0  0  0  0
 31 96  1  0  0  0  0
 32 97  1  0  0  0  0
 32 98  1  0  0  0  0
 33 37  2  0  0  0  0
 34 38  2  0  0  0  0
 35 39  1  0  0  0  0
 35 99  1  0  0  0  0
 36 40  1  0  0  0  0
 36100  1  0  0  0  0
 37 41  1  0  0  0  0
 37103  1  0  0  0  0
 38 42  1  0  0  0  0
 38104  1  0  0  0  0
 39 41  2  0  0  0  0
 39105  1  0  0  0  0
 40 42  2  0  0  0  0
 40106  1  0  0  0  0
 41107  1  0  0  0  0
 42108  1  0  0  0  0
 43 47  1  0  0  0  0
 44 48  1  0  0  0  0
 45109  1  0  0  0  0
 45110  1  0  0  0  0
 45111  1  0  0  0  0
 46112  1  0  0  0  0
 46113  1  0  0  0  0
 46114  1  0  0  0  0
 47 49  2  0  0  0  0
 47 51  1  0  0  0  0
 48 50  2  0  0  0  0
 48 52  1  0  0  0  0
 49 53  1  0  0  0  0
 49115  1  0  0  0  0
 50 54  1  0  0  0  0
 50116  1  0  0  0  0
 51 55  2  0  0  0  0
 51117  1  0  0  0  0
 52 56  2  0  0  0  0
 52118  1  0  0  0  0
 53 57  2  0  0  0  0
 53119  1  0  0  0  0
 54 58  2  0  0  0  0
 54120  1  0  0  0  0
 55 57  1  0  0  0  0
 55121  1  0  0  0  0
 56 58  1  0  0  0  0
 56122  1  0  0  0  0
 57 59  1  0  0  0  0
 58 60  1  0  0  0  0
 59123  1  0  0  0  0
 59124  1  0  0  0  0
 60125  1  0  0  0  0
 60126  1  0  0  0  0
 61 63  1  0  0  0  0
 61127  1  0  0  0  0
 61128  1  0  0  0  0
 62 64  1  0  0  0  0
 62129  1  0  0  0  0
 62130  1  0  0  0  0
 63131  1  0  0  0  0
 63132  1  0  0  0  0
 64133  1  0  0  0  0
 64134  1  0  0  0  0
 65 67  1  0  0  0  0
 65135  1  0  0  0  0
 65136  1  0  0  0  0
 66 68  1  0  0  0  0
 66137  1  0  0  0  0
 66138  1  0  0  0  0
 67139  1  0  0  0  0
 67140  1  0  0  0  0
 68141  1  0  0  0  0
 68142  1  0  0  0  0
 69 70  1  0  0  0  0
 69143  1  0  0  0  0
 69144  1  0  0  0  0
 70145  1  0  0  0  0
 70146  1  0  0  0  0
M  END
> <PUBCHEM_COMPOUND_CID>
57390119

> <PUBCHEM_COMPOUND_CANONICALIZED>
1

> <PUBCHEM_CACTVS_COMPLEXITY>
1260

> <PUBCHEM_CACTVS_HBOND_ACCEPTOR>
14

> <PUBCHEM_CACTVS_HBOND_DONOR>
2

> <PUBCHEM_CACTVS_ROTATABLE_BOND>
33

> <PUBCHEM_CACTVS_SUBSKEYS>
AAADcfB/vAAAAAAAAAAAAAAAAAAAAAAAAAA8eMGCAAAAAAABVAAAHgAQAAAADAzhmAYyxoPABACIAiVSUACCCAAlIgAIiIEPbMgPZjLE9ZuXMShk1hHa6YeYyDCOQAAAAAAAEACAAAAAAAAgAAAAAAAAAA==

> <PUBCHEM_IUPAC_OPENEYE_NAME>
N-[3-[4-(2-methoxyphenyl)piperazin-1-yl]propyl]-4-[2-[2-[2-[2-[2-[[4-[3-[4-(2-methoxyphenyl)piperazin-1-yl]propylcarbamoyl]phenyl]methoxy]ethoxy]ethoxy]ethoxy]ethoxy]ethoxymethyl]benzamide

> <PUBCHEM_IUPAC_CAS_NAME>
N-[3-[4-(2-methoxyphenyl)-1-piperazinyl]propyl]-4-[2-[2-[2-[2-[2-[[4-[[3-[4-(2-methoxyphenyl)-1-piperazinyl]propylamino]-oxomethyl]phenyl]methoxy]ethoxy]ethoxy]ethoxy]ethoxy]ethoxymethyl]benzamide

> <PUBCHEM_IUPAC_NAME_MARKUP>
<I>N</I>-[3-[4-(2-methoxyphenyl)piperazin-1-yl]propyl]-4-[2-[2-[2-[2-[2-[[4-[3-[4-(2-methoxyphenyl)piperazin-1-yl]propylcarbamoyl]phenyl]methoxy]ethoxy]ethoxy]ethoxy]ethoxy]ethoxymethyl]benzamide

> <PUBCHEM_IUPAC_NAME>
N-[3-[4-(2-methoxyphenyl)piperazin-1-yl]propyl]-4-[2-[2-[2-[2-[2-[[4-[3-[4-(2-methoxyphenyl)piperazin-1-yl]propylcarbamoyl]phenyl]methoxy]ethoxy]ethoxy]ethoxy]ethoxy]ethoxymethyl]benzamide

> <PUBCHEM_IUPAC_SYSTEMATIC_NAME>
N-[3-[4-(2-methoxyphenyl)piperazin-1-yl]propyl]-4-[2-[2-[2-[2-[2-[[4-[3-[4-(2-methoxyphenyl)piperazin-1-yl]propylcarbamoyl]phenyl]methoxy]ethoxy]ethoxy]ethoxy]ethoxy]ethoxymethyl]benzamide

> <PUBCHEM_IUPAC_TRADITIONAL_NAME>
N-[3-[4-(2-methoxyphenyl)piperazino]propyl]-4-[2-[2-[2-[2-[2-[4-[3-[4-(2-methoxyphenyl)piperazino]propylcarbamoyl]benzyl]oxyethoxy]ethoxy]ethoxy]ethoxy]ethoxymethyl]benzamide

> <PUBCHEM_IUPAC_INCHI>
InChI=1S/C54H76N6O10/c1-63-51-11-5-3-9-49(51)59-29-25-57(26-30-59)23-7-21-55-53(61)47-17-13-45(14-18-47)43-69-41-39-67-37-35-65-33-34-66-36-38-68-40-42-70-44-46-15-19-48(20-16-46)54(62)56-22-8-24-58-27-31-60(32-28-58)50-10-4-6-12-52(50)64-2/h3-6,9-20H,7-8,21-44H2,1-2H3,(H,55,61)(H,56,62)

> <PUBCHEM_IUPAC_INCHIKEY>
OBFPDOMCBFUMBH-UHFFFAOYSA-N

> <PUBCHEM_XLOGP3_AA>
4.8

> <PUBCHEM_EXACT_MASS>
968.56229264

> <PUBCHEM_MOLECULAR_FORMULA>
C54H76N6O10

> <PUBCHEM_MOLECULAR_WEIGHT>
969.2

> <PUBCHEM_OPENEYE_CAN_SMILES>
COC1=CC=CC=C1N2CCN(CC2)CCCNC(=O)C3=CC=C(C=C3)COCCOCCOCCOCCOCCOCC4=CC=C(C=C4)C(=O)NCCCN5CCN(CC5)C6=CC=CC=C6OC

> <PUBCHEM_OPENEYE_ISO_SMILES>
COC1=CC=CC=C1N2CCN(CC2)CCCNC(=O)C3=CC=C(C=C3)COCCOCCOCCOCCOCCOCC4=CC=C(C=C4)C(=O)NCCCN5CCN(CC5)C6=CC=CC=C6OC

> <PUBCHEM_CACTVS_TPSA>
145

> <PUBCHEM_MONOISOTOPIC_WEIGHT>
968.56229264

> <PUBCHEM_TOTAL_CHARGE>
0

> <PUBCHEM_HEAVY_ATOM_COUNT>
70

> <PUBCHEM_ATOM_DEF_STEREO_COUNT>
0

> <PUBCHEM_ATOM_UDEF_STEREO_COUNT>
0

> <PUBCHEM_BOND_DEF_STEREO_COUNT>
0

> <PUBCHEM_BOND_UDEF_STEREO_COUNT>
0

> <PUBCHEM_ISOTOPIC_ATOM_COUNT>
0

> <PUBCHEM_COMPONENT_COUNT>
1

> <PUBCHEM_CACTVS_TAUTO_COUNT>
-1

> <PUBCHEM_COORDINATE_TYPE>
1
5
255

> <PUBCHEM_BONDANNOTATIONS>
29  33  8
29  35  8
30  34  8
30  36  8
33  37  8
34  38  8
35  39  8
36  40  8
37  41  8
38  42  8
39  41  8
40  42  8
47  49  8
47  51  8
48  50  8
48  52  8
49  53  8
50  54  8
51  55  8
52  56  8
53  57  8
54  58  8
55  57  8
56  58  8

$$$$
