44404470
  -OEChem-09292322262D

 75 80  0     1  0  0  0  0  0999 V2000
    4.9556   -4.6502    0.0000 S   0  0  0  0  0  0  0  0  0  0  0  0
    6.1343    0.9180    0.0000 O   0  0  0  0  0  0  0  0  0  0  0  0
    6.1343   -2.0820    0.0000 O   0  0  0  0  0  0  0  0  0  0  0  0
    4.4033   -0.1265    0.0000 N   0  0  0  0  0  0  0  0  0  0  0  0
    7.0003    2.4180    0.0000 N   0  0  0  0  0  0  0  0  0  0  0  0
    4.4264   -2.1264    0.0000 N   0  0  0  0  0  0  0  0  0  0  0  0
    5.2494   -3.7006    0.0000 N   0  0  0  0  0  0  0  0  0  0  0  0
    7.0003    4.4180    0.0000 C   0  0  3  0  0  0  0  0  0  0  0  0
    6.1343    2.9180    0.0000 C   0  0  0  0  0  0  0  0  0  0  0  0
    7.8663    3.9180    0.0000 C   0  0  0  0  0  0  0  0  0  0  0  0
    6.1343    3.9180    0.0000 C   0  0  0  0  0  0  0  0  0  0  0  0
    7.8663    2.9180    0.0000 C   0  0  0  0  0  0  0  0  0  0  0  0
    4.3917    0.8734    0.0000 C   0  0  0  0  0  0  0  0  0  0  0  0
    5.2403    2.3834    0.0000 C   0  0  0  0  0  0  0  0  0  0  0  0
    5.2519    1.3834    0.0000 C   0  0  0  0  0  0  0  0  0  0  0  0
    5.2750   -0.6165    0.0000 C   0  0  0  0  0  0  0  0  0  0  0  0
    3.5431   -0.6365    0.0000 C   0  0  0  0  0  0  0  0  0  0  0  0
    5.2866   -1.6164    0.0000 C   0  0  0  0  0  0  0  0  0  0  0  0
    3.5546   -1.6364    0.0000 C   0  0  0  0  0  0  0  0  0  0  0  0
    7.0003    5.4180    0.0000 C   0  0  0  0  0  0  0  0  0  0  0  0
    5.2403    4.4527    0.0000 C   0  0  0  0  0  0  0  0  0  0  0  0
    4.3342    2.8972    0.0000 C   0  0  0  0  0  0  0  0  0  0  0  0
    7.0003    1.4180    0.0000 C   0  0  0  0  0  0  0  0  0  0  0  0
    4.3342    3.9388    0.0000 C   0  0  0  0  0  0  0  0  0  0  0  0
    4.4380   -3.1263    0.0000 C   0  0  0  0  0  0  0  0  0  0  0  0
    7.8663    0.9180    0.0000 C   0  0  0  0  0  0  0  0  0  0  0  0
    3.6400   -3.7192    0.0000 C   0  0  0  0  0  0  0  0  0  0  0  0
    3.9616   -4.6660    0.0000 C   0  0  0  0  0  0  0  0  0  0  0  0
    7.8663   -0.0820    0.0000 C   0  0  0  0  0  0  0  0  0  0  0  0
    2.6592   -3.5243    0.0000 C   0  0  0  0  0  0  0  0  0  0  0  0
    3.3025   -5.4180    0.0000 C   0  0  0  0  0  0  0  0  0  0  0  0
    7.0003   -0.5820    0.0000 C   0  0  0  0  0  0  0  0  0  0  0  0
    8.7323   -0.5820    0.0000 C   0  0  0  0  0  0  0  0  0  0  0  0
    2.0000   -4.2763    0.0000 C   0  0  0  0  0  0  0  0  0  0  0  0
    2.3216   -5.2231    0.0000 C   0  0  0  0  0  0  0  0  0  0  0  0
    7.0003   -1.5820    0.0000 C   0  0  0  0  0  0  0  0  0  0  0  0
    8.7323   -1.5820    0.0000 C   0  0  0  0  0  0  0  0  0  0  0  0
    7.8663   -2.0820    0.0000 C   0  0  0  0  0  0  0  0  0  0  0  0
    6.1343   -3.0820    0.0000 C   0  0  0  0  0  0  0  0  0  0  0  0
    7.5372    4.7280    0.0000 H   0  0  0  0  0  0  0  0  0  0  0  0
    8.4769    3.8104    0.0000 H   0  0  0  0  0  0  0  0  0  0  0  0
    8.0784    4.5006    0.0000 H   0  0  0  0  0  0  0  0  0  0  0  0
    8.0784    2.3354    0.0000 H   0  0  0  0  0  0  0  0  0  0  0  0
    8.4769    3.0257    0.0000 H   0  0  0  0  0  0  0  0  0  0  0  0
    4.1729    1.4535    0.0000 H   0  0  0  0  0  0  0  0  0  0  0  0
    3.7824    0.7587    0.0000 H   0  0  0  0  0  0  0  0  0  0  0  0
    5.4707    0.8033    0.0000 H   0  0  0  0  0  0  0  0  0  0  0  0
    5.8612    1.4981    0.0000 H   0  0  0  0  0  0  0  0  0  0  0  0
    5.8868   -0.7170    0.0000 H   0  0  0  0  0  0  0  0  0  0  0  0
    5.4803   -0.0314    0.0000 H   0  0  0  0  0  0  0  0  0  0  0  0
    3.3243   -0.0564    0.0000 H   0  0  0  0  0  0  0  0  0  0  0  0
    2.9338   -0.7512    0.0000 H   0  0  0  0  0  0  0  0  0  0  0  0
    5.5054   -2.1965    0.0000 H   0  0  0  0  0  0  0  0  0  0  0  0
    5.8959   -1.5017    0.0000 H   0  0  0  0  0  0  0  0  0  0  0  0
    2.9428   -1.5358    0.0000 H   0  0  0  0  0  0  0  0  0  0  0  0
    3.3493   -2.2214    0.0000 H   0  0  0  0  0  0  0  0  0  0  0  0
    7.6203    5.4180    0.0000 H   0  0  0  0  0  0  0  0  0  0  0  0
    7.0003    6.0380    0.0000 H   0  0  0  0  0  0  0  0  0  0  0  0
    6.3803    5.4180    0.0000 H   0  0  0  0  0  0  0  0  0  0  0  0
    5.2475    5.0726    0.0000 H   0  0  0  0  0  0  0  0  0  0  0  0
    3.7985    2.5851    0.0000 H   0  0  0  0  0  0  0  0  0  0  0  0
    3.7985    4.2509    0.0000 H   0  0  0  0  0  0  0  0  0  0  0  0
    8.4769    0.8103    0.0000 H   0  0  0  0  0  0  0  0  0  0  0  0
    8.0784    1.5006    0.0000 H   0  0  0  0  0  0  0  0  0  0  0  0
    2.4598   -2.9372    0.0000 H   0  0  0  0  0  0  0  0  0  0  0  0
    3.5019   -6.0051    0.0000 H   0  0  0  0  0  0  0  0  0  0  0  0
    6.4634   -0.2720    0.0000 H   0  0  0  0  0  0  0  0  0  0  0  0
    9.2693   -0.2720    0.0000 H   0  0  0  0  0  0  0  0  0  0  0  0
    1.3919   -4.1554    0.0000 H   0  0  0  0  0  0  0  0  0  0  0  0
    1.9129   -5.6893    0.0000 H   0  0  0  0  0  0  0  0  0  0  0  0
    9.2693   -1.8920    0.0000 H   0  0  0  0  0  0  0  0  0  0  0  0
    7.8663   -2.7020    0.0000 H   0  0  0  0  0  0  0  0  0  0  0  0
    5.5143   -3.0820    0.0000 H   0  0  0  0  0  0  0  0  0  0  0  0
    6.1343   -3.7020    0.0000 H   0  0  0  0  0  0  0  0  0  0  0  0
    6.7543   -3.0820    0.0000 H   0  0  0  0  0  0  0  0  0  0  0  0
  1  7  1  0  0  0  0
  1 28  1  0  0  0  0
  2 23  2  0  0  0  0
  3 36  1  0  0  0  0
  3 39  1  0  0  0  0
  4 13  1  0  0  0  0
  4 16  1  0  0  0  0
  4 17  1  0  0  0  0
  5  9  1  0  0  0  0
  5 12  1  0  0  0  0
  5 23  1  0  0  0  0
  6 18  1  0  0  0  0
  6 19  1  0  0  0  0
  6 25  1  0  0  0  0
  7 25  2  0  0  0  0
  8 10  1  0  0  0  0
  8 11  1  0  0  0  0
  8 20  1  0  0  0  0
  8 40  1  0  0  0  0
  9 11  1  0  0  0  0
  9 14  2  0  0  0  0
 10 12  1  0  0  0  0
 10 41  1  0  0  0  0
 10 42  1  0  0  0  0
 11 21  2  0  0  0  0
 12 43  1  0  0  0  0
 12 44  1  0  0  0  0
 13 15  1  0  0  0  0
 13 45  1  0  0  0  0
 13 46  1  0  0  0  0
 14 15  1  0  0  0  0
 14 22  1  0  0  0  0
 15 47  1  0  0  0  0
 15 48  1  0  0  0  0
 16 18  1  0  0  0  0
 16 49  1  0  0  0  0
 16 50  1  0  0  0  0
 17 19  1  0  0  0  0
 17 51  1  0  0  0  0
 17 52  1  0  0  0  0
 18 53  1  0  0  0  0
 18 54  1  0  0  0  0
 19 55  1  0  0  0  0
 19 56  1  0  0  0  0
 20 57  1  0  0  0  0
 20 58  1  0  0  0  0
 20 59  1  0  0  0  0
 21 24  1  0  0  0  0
 21 60  1  0  0  0  0
 22 24  2  0  0  0  0
 22 61  1  0  0  0  0
 23 26  1  0  0  0  0
 24 62  1  0  0  0  0
 25 27  1  0  0  0  0
 26 29  1  0  0  0  0
 26 63  1  0  0  0  0
 26 64  1  0  0  0  0
 27 28  1  0  0  0  0
 27 30  2  0  0  0  0
 28 31  2  0  0  0  0
 29 32  2  0  0  0  0
 29 33  1  0  0  0  0
 30 34  1  0  0  0  0
 30 65  1  0  0  0  0
 31 35  1  0  0  0  0
 31 66  1  0  0  0  0
 32 36  1  0  0  0  0
 32 67  1  0  0  0  0
 33 37  2  0  0  0  0
 33 68  1  0  0  0  0
 34 35  2  0  0  0  0
 34 69  1  0  0  0  0
 35 70  1  0  0  0  0
 36 38  2  0  0  0  0
 37 38  1  0  0  0  0
 37 71  1  0  0  0  0
 38 72  1  0  0  0  0
 39 73  1  0  0  0  0
 39 74  1  0  0  0  0
 39 75  1  0  0  0  0
M  END
> <PUBCHEM_COMPOUND_CID>
44404470

> <PUBCHEM_COMPOUND_CANONICALIZED>
1

> <PUBCHEM_CACTVS_COMPLEXITY>
807

> <PUBCHEM_CACTVS_HBOND_ACCEPTOR>
6

> <PUBCHEM_CACTVS_HBOND_DONOR>
0

> <PUBCHEM_CACTVS_ROTATABLE_BOND>
7

> <PUBCHEM_CACTVS_SUBSKEYS>
AAADcfB/sABAAAAAAAAAAAAAAAAAAWAAAAA8eMECAAAAAFix9AAAHgQAQAAADQzB2gYz99MABACsAidycACDCBAhIABJmDkuTJiMZrLEvZuUMCxkxhPI6AeY3PLOgAADAAAGAAAAAAYAAAwAAAAAAAAAAA==

> <PUBCHEM_IUPAC_OPENEYE_NAME>
1-[8-[2-[4-(1,2-benzothiazol-3-yl)piperazin-1-yl]ethyl]-4-methyl-3,4-dihydro-2H-quinolin-1-yl]-2-(3-methoxyphenyl)ethanone

> <PUBCHEM_IUPAC_CAS_NAME>
1-[8-[2-[4-(1,2-benzothiazol-3-yl)-1-piperazinyl]ethyl]-4-methyl-3,4-dihydro-2H-quinolin-1-yl]-2-(3-methoxyphenyl)ethanone

> <PUBCHEM_IUPAC_NAME_MARKUP>
1-[8-[2-[4-(1,2-benzothiazol-3-yl)piperazin-1-yl]ethyl]-4-methyl-3,4-dihydro-2<I>H</I>-quinolin-1-yl]-2-(3-methoxyphenyl)ethanone

> <PUBCHEM_IUPAC_NAME>
1-[8-[2-[4-(1,2-benzothiazol-3-yl)piperazin-1-yl]ethyl]-4-methyl-3,4-dihydro-2H-quinolin-1-yl]-2-(3-methoxyphenyl)ethanone

> <PUBCHEM_IUPAC_SYSTEMATIC_NAME>
1-[8-[2-[4-(1,2-benzothiazol-3-yl)piperazin-1-yl]ethyl]-4-methyl-3,4-dihydro-2H-quinolin-1-yl]-2-(3-methoxyphenyl)ethanone

> <PUBCHEM_IUPAC_TRADITIONAL_NAME>
1-[8-[2-[4-(1,2-benzothiazol-3-yl)piperazino]ethyl]-4-methyl-3,4-dihydro-2H-quinolin-1-yl]-2-(3-methoxyphenyl)ethanone

> <PUBCHEM_IUPAC_INCHI>
InChI=1S/C32H36N4O2S/c1-23-13-16-36(30(37)22-24-7-5-9-26(21-24)38-2)31-25(8-6-11-27(23)31)14-15-34-17-19-35(20-18-34)32-28-10-3-4-12-29(28)39-33-32/h3-12,21,23H,13-20,22H2,1-2H3

> <PUBCHEM_IUPAC_INCHIKEY>
LHFSUAZTBWHHAU-UHFFFAOYSA-N

> <PUBCHEM_XLOGP3_AA>
6.2

> <PUBCHEM_EXACT_MASS>
540.25589758

> <PUBCHEM_MOLECULAR_FORMULA>
C32H36N4O2S

> <PUBCHEM_MOLECULAR_WEIGHT>
540.7

> <PUBCHEM_OPENEYE_CAN_SMILES>
CC1CCN(C2=C(C=CC=C12)CCN3CCN(CC3)C4=NSC5=CC=CC=C54)C(=O)CC6=CC(=CC=C6)OC

> <PUBCHEM_OPENEYE_ISO_SMILES>
CC1CCN(C2=C(C=CC=C12)CCN3CCN(CC3)C4=NSC5=CC=CC=C54)C(=O)CC6=CC(=CC=C6)OC

> <PUBCHEM_CACTVS_TPSA>
77.2

> <PUBCHEM_MONOISOTOPIC_WEIGHT>
540.25589758

> <PUBCHEM_TOTAL_CHARGE>
0

> <PUBCHEM_HEAVY_ATOM_COUNT>
39

> <PUBCHEM_ATOM_DEF_STEREO_COUNT>
0

> <PUBCHEM_ATOM_UDEF_STEREO_COUNT>
1

> <PUBCHEM_BOND_DEF_STEREO_COUNT>
0

> <PUBCHEM_BOND_UDEF_STEREO_COUNT>
0

> <PUBCHEM_ISOTOPIC_ATOM_COUNT>
0

> <PUBCHEM_COMPONENT_COUNT>
1

> <PUBCHEM_CACTVS_TAUTO_COUNT>
-1

> <PUBCHEM_COORDINATE_TYPE>
1
5
255

> <PUBCHEM_BONDANNOTATIONS>
1  28  8
1  7  8
11  21  8
14  22  8
21  24  8
22  24  8
25  27  8
27  28  8
27  30  8
28  31  8
29  32  8
29  33  8
30  34  8
31  35  8
32  36  8
33  37  8
34  35  8
36  38  8
37  38  8
7  25  8
8  20  3
9  11  8
9  14  8

$$$$
