44377965
  -OEChem-09292322192D

 67 71  0     1  0  0  0  0  0999 V2000
    8.2312   -5.9408    0.0000 S   0  0  0  0  0  0  0  0  0  0  0  0
    4.9800    5.9408    0.0000 F   0  0  0  0  0  0  0  0  0  0  0  0
    7.9933    2.4883    0.0000 O   0  0  0  0  0  0  0  0  0  0  0  0
    3.4966    1.6050    0.0000 O   0  0  0  0  0  0  0  0  0  0  0  0
    3.4900    3.3370    0.0000 O   0  0  0  0  0  0  0  0  0  0  0  0
    8.3365   -3.7307    0.0000 N   0  0  3  0  0  0  0  0  0  0  0  0
    7.0066   -0.9796    0.0000 N   0  0  3  0  0  0  0  0  0  0  0  0
    4.9933    2.4768    0.0000 N   0  0  0  0  0  0  0  0  0  0  0  0
    8.0274   -2.7796    0.0000 C   0  0  2  0  0  0  0  0  0  0  0  0
    7.0274   -2.7796    0.0000 C   0  0  1  0  0  0  0  0  0  0  0  0
    8.5621   -1.8857    0.0000 C   0  0  0  0  0  0  0  0  0  0  0  0
    6.4928   -1.8857    0.0000 C   0  0  0  0  0  0  0  0  0  0  0  0
    6.7184   -3.7307    0.0000 C   0  0  0  0  0  0  0  0  0  0  0  0
    7.5274   -4.3184    0.0000 C   0  0  0  0  0  0  0  0  0  0  0  0
    8.0483   -0.9796    0.0000 C   0  0  0  0  0  0  0  0  0  0  0  0
    9.2801   -3.9980    0.0000 C   0  0  0  0  0  0  0  0  0  0  0  0
    6.5033   -0.1155    0.0000 C   0  0  0  0  0  0  0  0  0  0  0  0
    7.4900   -5.2985    0.0000 C   0  0  0  0  0  0  0  0  0  0  0  0
    5.8433   -4.1816    0.0000 C   0  0  0  0  0  0  0  0  0  0  0  0
    9.6620   -4.9014    0.0000 C   0  0  0  0  0  0  0  0  0  0  0  0
    9.1960   -5.7644    0.0000 C   0  0  0  0  0  0  0  0  0  0  0  0
    7.0000    0.7524    0.0000 C   0  0  0  0  0  0  0  0  0  0  0  0
    6.5989   -5.7169    0.0000 C   0  0  0  0  0  0  0  0  0  0  0  0
    5.7842   -5.1643    0.0000 C   0  0  0  0  0  0  0  0  0  0  0  0
    6.4966    1.6165    0.0000 C   0  0  0  0  0  0  0  0  0  0  0  0
    6.9933    2.4845    0.0000 C   0  0  0  0  0  0  0  0  0  0  0  0
    6.4900    3.3486    0.0000 C   0  0  0  0  0  0  0  0  0  0  0  0
    5.4900    3.3447    0.0000 C   0  0  0  0  0  0  0  0  0  0  0  0
    6.9866    4.2165    0.0000 C   0  0  0  0  0  0  0  0  0  0  0  0
    4.9866    4.2088    0.0000 C   0  0  0  0  0  0  0  0  0  0  0  0
    6.4833    5.0806    0.0000 C   0  0  0  0  0  0  0  0  0  0  0  0
    5.4833    5.0768    0.0000 C   0  0  0  0  0  0  0  0  0  0  0  0
    3.9933    2.4729    0.0000 C   0  0  0  0  0  0  0  0  0  0  0  0
    2.4967    1.6011    0.0000 C   0  0  0  0  0  0  0  0  0  0  0  0
    2.0000    0.7332    0.0000 C   0  0  0  0  0  0  0  0  0  0  0  0
    8.8721   -2.8750    0.0000 H   0  0  0  0  0  0  0  0  0  0  0  0
    6.1828   -2.8750    0.0000 H   0  0  0  0  0  0  0  0  0  0  0  0
    9.0319   -2.2903    0.0000 H   0  0  0  0  0  0  0  0  0  0  0  0
    9.0411   -1.4920    0.0000 H   0  0  0  0  0  0  0  0  0  0  0  0
    6.0138   -1.4920    0.0000 H   0  0  0  0  0  0  0  0  0  0  0  0
    6.0230   -2.2903    0.0000 H   0  0  0  0  0  0  0  0  0  0  0  0
    8.6320   -0.7705    0.0000 H   0  0  0  0  0  0  0  0  0  0  0  0
    7.9422   -0.3687    0.0000 H   0  0  0  0  0  0  0  0  0  0  0  0
    9.8907   -3.8902    0.0000 H   0  0  0  0  0  0  0  0  0  0  0  0
    9.3116   -3.3787    0.0000 H   0  0  0  0  0  0  0  0  0  0  0  0
    6.0268    0.2812    0.0000 H   0  0  0  0  0  0  0  0  0  0  0  0
    6.0299   -0.5159    0.0000 H   0  0  0  0  0  0  0  0  0  0  0  0
    5.3239   -3.8431    0.0000 H   0  0  0  0  0  0  0  0  0  0  0  0
   10.1280   -5.3103    0.0000 H   0  0  0  0  0  0  0  0  0  0  0  0
   10.1647   -4.5385    0.0000 H   0  0  0  0  0  0  0  0  0  0  0  0
    9.1685   -6.3838    0.0000 H   0  0  0  0  0  0  0  0  0  0  0  0
    9.7936   -5.9296    0.0000 H   0  0  0  0  0  0  0  0  0  0  0  0
    7.4764    0.3557    0.0000 H   0  0  0  0  0  0  0  0  0  0  0  0
    7.4734    1.1528    0.0000 H   0  0  0  0  0  0  0  0  0  0  0  0
    6.5502   -6.3350    0.0000 H   0  0  0  0  0  0  0  0  0  0  0  0
    5.2279   -5.4380    0.0000 H   0  0  0  0  0  0  0  0  0  0  0  0
    6.0202    2.0132    0.0000 H   0  0  0  0  0  0  0  0  0  0  0  0
    6.0232    1.2162    0.0000 H   0  0  0  0  0  0  0  0  0  0  0  0
    7.6066    4.2189    0.0000 H   0  0  0  0  0  0  0  0  0  0  0  0
    4.3666    4.2064    0.0000 H   0  0  0  0  0  0  0  0  0  0  0  0
    6.7912    5.6187    0.0000 H   0  0  0  0  0  0  0  0  0  0  0  0
    5.3054    1.9410    0.0000 H   0  0  0  0  0  0  0  0  0  0  0  0
    2.6020    2.2121    0.0000 H   0  0  0  0  0  0  0  0  0  0  0  0
    1.9132    1.8109    0.0000 H   0  0  0  0  0  0  0  0  0  0  0  0
    1.4619    1.0411    0.0000 H   0  0  0  0  0  0  0  0  0  0  0  0
    1.6921    0.1950    0.0000 H   0  0  0  0  0  0  0  0  0  0  0  0
    2.5381    0.4252    0.0000 H   0  0  0  0  0  0  0  0  0  0  0  0
  1 18  1  0  0  0  0
  1 21  1  0  0  0  0
  2 32  1  0  0  0  0
  3 26  2  0  0  0  0
  4 33  1  0  0  0  0
  4 34  1  0  0  0  0
  5 33  2  0  0  0  0
  6  9  1  0  0  0  0
  6 14  1  0  0  0  0
  6 16  1  0  0  0  0
  7 12  1  0  0  0  0
  7 15  1  0  0  0  0
  7 17  1  0  0  0  0
  8 28  1  0  0  0  0
  8 33  1  0  0  0  0
  8 62  1  0  0  0  0
  9 10  1  0  0  0  0
  9 11  1  0  0  0  0
  9 36  1  1  0  0  0
 10 12  1  0  0  0  0
 10 13  1  0  0  0  0
 10 37  1  1  0  0  0
 11 15  1  0  0  0  0
 11 38  1  0  0  0  0
 11 39  1  0  0  0  0
 12 40  1  0  0  0  0
 12 41  1  0  0  0  0
 13 14  2  0  0  0  0
 13 19  1  0  0  0  0
 14 18  1  0  0  0  0
 15 42  1  0  0  0  0
 15 43  1  0  0  0  0
 16 20  1  0  0  0  0
 16 44  1  0  0  0  0
 16 45  1  0  0  0  0
 17 22  1  0  0  0  0
 17 46  1  0  0  0  0
 17 47  1  0  0  0  0
 18 23  2  0  0  0  0
 19 24  2  0  0  0  0
 19 48  1  0  0  0  0
 20 21  1  0  0  0  0
 20 49  1  0  0  0  0
 20 50  1  0  0  0  0
 21 51  1  0  0  0  0
 21 52  1  0  0  0  0
 22 25  1  0  0  0  0
 22 53  1  0  0  0  0
 22 54  1  0  0  0  0
 23 24  1  0  0  0  0
 23 55  1  0  0  0  0
 24 56  1  0  0  0  0
 25 26  1  0  0  0  0
 25 57  1  0  0  0  0
 25 58  1  0  0  0  0
 26 27  1  0  0  0  0
 27 28  2  0  0  0  0
 27 29  1  0  0  0  0
 28 30  1  0  0  0  0
 29 31  2  0  0  0  0
 29 59  1  0  0  0  0
 30 32  2  0  0  0  0
 30 60  1  0  0  0  0
 31 32  1  0  0  0  0
 31 61  1  0  0  0  0
 34 35  1  0  0  0  0
 34 63  1  0  0  0  0
 34 64  1  0  0  0  0
 35 65  1  0  0  0  0
 35 66  1  0  0  0  0
 35 67  1  0  0  0  0
M  END
> <PUBCHEM_COMPOUND_CID>
44377965

> <PUBCHEM_COMPOUND_CANONICALIZED>
1

> <PUBCHEM_CACTVS_COMPLEXITY>
757

> <PUBCHEM_CACTVS_HBOND_ACCEPTOR>
7

> <PUBCHEM_CACTVS_HBOND_DONOR>
1

> <PUBCHEM_CACTVS_ROTATABLE_BOND>
8

> <PUBCHEM_CACTVS_SUBSKEYS>
AAADcfB7MQBAAAAAAAAAAAAAAAAAAWAAAAA8YIAABYAAAFixQAAAHwQQAAAADSzl2A6yyYPABAiIAqRSWACCAAAlChAIiB0IZMkIIDrg1ZGMIYhglADoyccciMCOgAAAgAACAQAAAAEAAAQCAAAAAAAAAA==

> <PUBCHEM_IUPAC_OPENEYE_NAME>
ethyl N-[5-fluoro-2-[4-[(11S,16R)-6-thia-10,14-diazatetracyclo[8.6.1.05,17.011,16]heptadeca-1(17),2,4-trien-14-yl]butanoyl]phenyl]carbamate

> <PUBCHEM_IUPAC_CAS_NAME>
N-[5-fluoro-2-[1-oxo-4-[(11S,16R)-6-thia-10,14-diazatetracyclo[8.6.1.05,17.011,16]heptadeca-1(17),2,4-trien-14-yl]butyl]phenyl]carbamic acid ethyl ester

> <PUBCHEM_IUPAC_NAME_MARKUP>
ethyl <I>N</I>-[5-fluoro-2-[4-[(11<I>S</I>,16<I>R</I>)-6-thia-10,14-diazatetracyclo[8.6.1.0<SUP>5,17</SUP>.0<SUP>11,16</SUP>]heptadeca-1(17),2,4-trien-14-yl]butanoyl]phenyl]carbamate

> <PUBCHEM_IUPAC_NAME>
ethyl N-[5-fluoro-2-[4-[(11S,16R)-6-thia-10,14-diazatetracyclo[8.6.1.05,17.011,16]heptadeca-1(17),2,4-trien-14-yl]butanoyl]phenyl]carbamate

> <PUBCHEM_IUPAC_SYSTEMATIC_NAME>
ethyl N-[5-fluoranyl-2-[4-[(11S,16R)-6-thia-10,14-diazatetracyclo[8.6.1.05,17.011,16]heptadeca-1(17),2,4-trien-14-yl]butanoyl]phenyl]carbamate

> <PUBCHEM_IUPAC_TRADITIONAL_NAME>
N-[5-fluoro-2-[4-[(11S,16R)-6-thia-10,14-diazatetracyclo[8.6.1.05,17.011,16]heptadeca-1(17),2,4-trien-14-yl]butanoyl]phenyl]carbamic acid ethyl ester

> <PUBCHEM_IUPAC_INCHI>
InChI=1S/C27H32FN3O3S/c1-2-34-27(33)29-22-16-18(28)9-10-20(22)24(32)7-4-12-30-14-11-23-21(17-30)19-6-3-8-25-26(19)31(23)13-5-15-35-25/h3,6,8-10,16,21,23H,2,4-5,7,11-15,17H2,1H3,(H,29,33)/t21-,23-/m0/s1

> <PUBCHEM_IUPAC_INCHIKEY>
KALVMJJXXTWNQX-GMAHTHKFSA-N

> <PUBCHEM_XLOGP3_AA>
5

> <PUBCHEM_EXACT_MASS>
497.21484123

> <PUBCHEM_MOLECULAR_FORMULA>
C27H32FN3O3S

> <PUBCHEM_MOLECULAR_WEIGHT>
497.6

> <PUBCHEM_OPENEYE_CAN_SMILES>
CCOC(=O)NC1=C(C=CC(=C1)F)C(=O)CCCN2CCC3C(C2)C4=C5N3CCCSC5=CC=C4

> <PUBCHEM_OPENEYE_ISO_SMILES>
CCOC(=O)NC1=C(C=CC(=C1)F)C(=O)CCCN2CC[C@H]3[C@@H](C2)C4=C5N3CCCSC5=CC=C4

> <PUBCHEM_CACTVS_TPSA>
87.2

> <PUBCHEM_MONOISOTOPIC_WEIGHT>
497.21484123

> <PUBCHEM_TOTAL_CHARGE>
0

> <PUBCHEM_HEAVY_ATOM_COUNT>
35

> <PUBCHEM_ATOM_DEF_STEREO_COUNT>
2

> <PUBCHEM_ATOM_UDEF_STEREO_COUNT>
0

> <PUBCHEM_BOND_DEF_STEREO_COUNT>
0

> <PUBCHEM_BOND_UDEF_STEREO_COUNT>
0

> <PUBCHEM_ISOTOPIC_ATOM_COUNT>
0

> <PUBCHEM_COMPONENT_COUNT>
1

> <PUBCHEM_CACTVS_TAUTO_COUNT>
-1

> <PUBCHEM_COORDINATE_TYPE>
1
5
255

> <PUBCHEM_BONDANNOTATIONS>
10  37  5
13  14  8
13  19  8
14  18  8
18  23  8
19  24  8
23  24  8
27  28  8
27  29  8
28  30  8
29  31  8
30  32  8
31  32  8
9  36  5

$$$$
