44353477
  -OEChem-09292322202D

 65 67  0     1  0  0  0  0  0999 V2000
   15.0564    1.0238    0.0000 O   0  0  0  0  0  0  0  0  0  0  0  0
    4.5981   -1.0204    0.0000 N   0  0  0  0  0  0  0  0  0  0  0  0
   15.0525    2.0238    0.0000 N   0  0  0  0  0  0  0  0  0  0  0  0
    5.4641   -0.5204    0.0000 C   0  0  3  0  0  0  0  0  0  0  0  0
    5.4641    0.4796    0.0000 C   0  0  0  0  0  0  0  0  0  0  0  0
    6.3301   -1.0204    0.0000 C   0  0  0  0  0  0  0  0  0  0  0  0
    6.3301    0.9796    0.0000 C   0  0  0  0  0  0  0  0  0  0  0  0
    7.1962   -0.5204    0.0000 C   0  0  0  0  0  0  0  0  0  0  0  0
    7.1962    0.4796    0.0000 C   0  0  0  0  0  0  0  0  0  0  0  0
    3.7320   -0.5204    0.0000 C   0  0  0  0  0  0  0  0  0  0  0  0
    4.5981   -2.0204    0.0000 C   0  0  0  0  0  0  0  0  0  0  0  0
    8.0901    1.0143    0.0000 C   0  0  0  0  0  0  0  0  0  0  0  0
    8.0901   -1.0551    0.0000 C   0  0  0  0  0  0  0  0  0  0  0  0
    8.9962    0.5004    0.0000 C   0  0  0  0  0  0  0  0  0  0  0  0
    2.8660   -1.0204    0.0000 C   0  0  0  0  0  0  0  0  0  0  0  0
    3.7320   -2.5204    0.0000 C   0  0  0  0  0  0  0  0  0  0  0  0
    8.9962   -0.5412    0.0000 C   0  0  0  0  0  0  0  0  0  0  0  0
    9.8602    1.0037    0.0000 C   0  0  0  0  0  0  0  0  0  0  0  0
    2.0000   -0.5204    0.0000 C   0  0  0  0  0  0  0  0  0  0  0  0
    3.7320   -3.5204    0.0000 C   0  0  0  0  0  0  0  0  0  0  0  0
   10.7282    0.5071    0.0000 C   0  0  0  0  0  0  0  0  0  0  0  0
   11.5923    1.0104    0.0000 C   0  0  0  0  0  0  0  0  0  0  0  0
   12.4602    0.5138    0.0000 C   0  0  0  0  0  0  0  0  0  0  0  0
   11.5884    2.0104    0.0000 C   0  0  0  0  0  0  0  0  0  0  0  0
   13.3243    1.0171    0.0000 C   0  0  0  0  0  0  0  0  0  0  0  0
   12.4525    2.5137    0.0000 C   0  0  0  0  0  0  0  0  0  0  0  0
   13.3205    2.0171    0.0000 C   0  0  0  0  0  0  0  0  0  0  0  0
   14.1846    2.5204    0.0000 C   0  0  0  0  0  0  0  0  0  0  0  0
   14.1807    3.5204    0.0000 C   0  0  0  0  0  0  0  0  0  0  0  0
    5.4641   -1.1404    0.0000 H   0  0  0  0  0  0  0  0  0  0  0  0
    5.2520    1.0622    0.0000 H   0  0  0  0  0  0  0  0  0  0  0  0
    4.8535    0.3719    0.0000 H   0  0  0  0  0  0  0  0  0  0  0  0
    5.9316   -1.4954    0.0000 H   0  0  0  0  0  0  0  0  0  0  0  0
    6.7287   -1.4954    0.0000 H   0  0  0  0  0  0  0  0  0  0  0  0
    6.7287    1.4545    0.0000 H   0  0  0  0  0  0  0  0  0  0  0  0
    5.9316    1.4545    0.0000 H   0  0  0  0  0  0  0  0  0  0  0  0
    4.1306   -0.0455    0.0000 H   0  0  0  0  0  0  0  0  0  0  0  0
    3.3335   -0.0455    0.0000 H   0  0  0  0  0  0  0  0  0  0  0  0
    4.8101   -2.6030    0.0000 H   0  0  0  0  0  0  0  0  0  0  0  0
    5.2087   -1.9128    0.0000 H   0  0  0  0  0  0  0  0  0  0  0  0
    8.0829    1.6342    0.0000 H   0  0  0  0  0  0  0  0  0  0  0  0
    8.0829   -1.6750    0.0000 H   0  0  0  0  0  0  0  0  0  0  0  0
    2.4675   -1.4954    0.0000 H   0  0  0  0  0  0  0  0  0  0  0  0
    3.2646   -1.4954    0.0000 H   0  0  0  0  0  0  0  0  0  0  0  0
    3.5200   -1.9378    0.0000 H   0  0  0  0  0  0  0  0  0  0  0  0
    3.1215   -2.6281    0.0000 H   0  0  0  0  0  0  0  0  0  0  0  0
    9.5319   -0.8533    0.0000 H   0  0  0  0  0  0  0  0  0  0  0  0
   10.2569    1.4802    0.0000 H   0  0  0  0  0  0  0  0  0  0  0  0
    9.4599    1.4772    0.0000 H   0  0  0  0  0  0  0  0  0  0  0  0
    2.3100    0.0165    0.0000 H   0  0  0  0  0  0  0  0  0  0  0  0
    1.4631   -0.2104    0.0000 H   0  0  0  0  0  0  0  0  0  0  0  0
    1.6900   -1.0574    0.0000 H   0  0  0  0  0  0  0  0  0  0  0  0
    3.1120   -3.5204    0.0000 H   0  0  0  0  0  0  0  0  0  0  0  0
    3.7320   -4.1404    0.0000 H   0  0  0  0  0  0  0  0  0  0  0  0
    4.3520   -3.5204    0.0000 H   0  0  0  0  0  0  0  0  0  0  0  0
   10.3315    0.0306    0.0000 H   0  0  0  0  0  0  0  0  0  0  0  0
   11.1286    0.0337    0.0000 H   0  0  0  0  0  0  0  0  0  0  0  0
   12.4626   -0.1062    0.0000 H   0  0  0  0  0  0  0  0  0  0  0  0
   11.0503    2.3183    0.0000 H   0  0  0  0  0  0  0  0  0  0  0  0
   13.8625    0.7092    0.0000 H   0  0  0  0  0  0  0  0  0  0  0  0
   12.4501    3.1337    0.0000 H   0  0  0  0  0  0  0  0  0  0  0  0
   14.8007    3.5228    0.0000 H   0  0  0  0  0  0  0  0  0  0  0  0
   14.1783    4.1404    0.0000 H   0  0  0  0  0  0  0  0  0  0  0  0
   13.5607    3.5180    0.0000 H   0  0  0  0  0  0  0  0  0  0  0  0
   15.5945    0.7158    0.0000 H   0  0  0  0  0  0  0  0  0  0  0  0
  1  3  1  0  0  0  0
  1 65  1  0  0  0  0
  2  4  1  0  0  0  0
  2 10  1  0  0  0  0
  2 11  1  0  0  0  0
  3 28  2  0  0  0  0
  4  5  1  0  0  0  0
  4  6  1  0  0  0  0
  4 30  1  0  0  0  0
  5  7  1  0  0  0  0
  5 31  1  0  0  0  0
  5 32  1  0  0  0  0
  6  8  1  0  0  0  0
  6 33  1  0  0  0  0
  6 34  1  0  0  0  0
  7  9  1  0  0  0  0
  7 35  1  0  0  0  0
  7 36  1  0  0  0  0
  8  9  2  0  0  0  0
  8 13  1  0  0  0  0
  9 12  1  0  0  0  0
 10 15  1  0  0  0  0
 10 37  1  0  0  0  0
 10 38  1  0  0  0  0
 11 16  1  0  0  0  0
 11 39  1  0  0  0  0
 11 40  1  0  0  0  0
 12 14  2  0  0  0  0
 12 41  1  0  0  0  0
 13 17  2  0  0  0  0
 13 42  1  0  0  0  0
 14 17  1  0  0  0  0
 14 18  1  0  0  0  0
 15 19  1  0  0  0  0
 15 43  1  0  0  0  0
 15 44  1  0  0  0  0
 16 20  1  0  0  0  0
 16 45  1  0  0  0  0
 16 46  1  0  0  0  0
 17 47  1  0  0  0  0
 18 21  1  0  0  0  0
 18 48  1  0  0  0  0
 18 49  1  0  0  0  0
 19 50  1  0  0  0  0
 19 51  1  0  0  0  0
 19 52  1  0  0  0  0
 20 53  1  0  0  0  0
 20 54  1  0  0  0  0
 20 55  1  0  0  0  0
 21 22  1  0  0  0  0
 21 56  1  0  0  0  0
 21 57  1  0  0  0  0
 22 23  2  0  0  0  0
 22 24  1  0  0  0  0
 23 25  1  0  0  0  0
 23 58  1  0  0  0  0
 24 26  2  0  0  0  0
 24 59  1  0  0  0  0
 25 27  2  0  0  0  0
 25 60  1  0  0  0  0
 26 27  1  0  0  0  0
 26 61  1  0  0  0  0
 27 28  1  0  0  0  0
 28 29  1  0  0  0  0
 29 62  1  0  0  0  0
 29 63  1  0  0  0  0
 29 64  1  0  0  0  0
M  END
> <PUBCHEM_COMPOUND_CID>
44353477

> <PUBCHEM_COMPOUND_CANONICALIZED>
1

> <PUBCHEM_CACTVS_COMPLEXITY>
491

> <PUBCHEM_CACTVS_HBOND_ACCEPTOR>
3

> <PUBCHEM_CACTVS_HBOND_DONOR>
1

> <PUBCHEM_CACTVS_ROTATABLE_BOND>
9

> <PUBCHEM_CACTVS_SUBSKEYS>
AAADcfB7IAAAAAAAAAAAAAAAAAAAAAAAAAAwYMAAAAAAAADBQAAAHAAECAAADCjBGAQyAIMQAACgAyBiAAACAAAgAAAIiAA4AJgIIKKAkRGEIAAggACIiAcQgMAOwAACAAAQAACQAASAACAAAAAAAAAAAA==

> <PUBCHEM_IUPAC_OPENEYE_NAME>
1-[4-[2-[2-(dipropylamino)tetralin-6-yl]ethyl]phenyl]ethanone oxime

> <PUBCHEM_IUPAC_CAS_NAME>
1-[4-[2-[6-(dipropylamino)-5,6,7,8-tetrahydronaphthalen-2-yl]ethyl]phenyl]ethanone oxime

> <PUBCHEM_IUPAC_NAME_MARKUP>
(<I>N</I><I>Z</I>)-<I>N</I>-[1-[4-[2-[6-(dipropylamino)-5,6,7,8-tetrahydronaphthalen-2-yl]ethyl]phenyl]ethylidene]hydroxylamine

> <PUBCHEM_IUPAC_NAME>
(NZ)-N-[1-[4-[2-[6-(dipropylamino)-5,6,7,8-tetrahydronaphthalen-2-yl]ethyl]phenyl]ethylidene]hydroxylamine

> <PUBCHEM_IUPAC_SYSTEMATIC_NAME>
(NZ)-N-[1-[4-[2-[6-(dipropylamino)-5,6,7,8-tetrahydronaphthalen-2-yl]ethyl]phenyl]ethylidene]hydroxylamine

> <PUBCHEM_IUPAC_TRADITIONAL_NAME>
1-[4-[2-[2-(dipropylamino)tetralin-6-yl]ethyl]phenyl]ethanone oxime

> <PUBCHEM_IUPAC_INCHI>
InChI=1S/C26H36N2O/c1-4-16-28(17-5-2)26-15-14-24-18-22(10-13-25(24)19-26)7-6-21-8-11-23(12-9-21)20(3)27-29/h8-13,18,26,29H,4-7,14-17,19H2,1-3H3/b27-20-

> <PUBCHEM_IUPAC_INCHIKEY>
GFAFSCXGLIXHFV-OOAXWGSJSA-N

> <PUBCHEM_XLOGP3_AA>
6.6

> <PUBCHEM_EXACT_MASS>
392.282763776

> <PUBCHEM_MOLECULAR_FORMULA>
C26H36N2O

> <PUBCHEM_MOLECULAR_WEIGHT>
392.6

> <PUBCHEM_OPENEYE_CAN_SMILES>
CCCN(CCC)C1CCC2=C(C1)C=CC(=C2)CCC3=CC=C(C=C3)C(=NO)C

> <PUBCHEM_OPENEYE_ISO_SMILES>
CCCN(CCC)C1CCC2=C(C1)C=CC(=C2)CCC3=CC=C(C=C3)/C(=N\O)/C

> <PUBCHEM_CACTVS_TPSA>
35.8

> <PUBCHEM_MONOISOTOPIC_WEIGHT>
392.282763776

> <PUBCHEM_TOTAL_CHARGE>
0

> <PUBCHEM_HEAVY_ATOM_COUNT>
29

> <PUBCHEM_ATOM_DEF_STEREO_COUNT>
0

> <PUBCHEM_ATOM_UDEF_STEREO_COUNT>
1

> <PUBCHEM_BOND_DEF_STEREO_COUNT>
1

> <PUBCHEM_BOND_UDEF_STEREO_COUNT>
0

> <PUBCHEM_ISOTOPIC_ATOM_COUNT>
0

> <PUBCHEM_COMPONENT_COUNT>
1

> <PUBCHEM_CACTVS_TAUTO_COUNT>
-1

> <PUBCHEM_COORDINATE_TYPE>
1
5
255

> <PUBCHEM_BONDANNOTATIONS>
12  14  8
13  17  8
14  17  8
4  2  3
22  23  8
22  24  8
23  25  8
24  26  8
25  27  8
26  27  8
8  13  8
8  9  8
9  12  8

$$$$
