11633170
  -OEChem-09292322272D

 62 66  0     0  0  0  0  0  0999 V2000
    3.7320   -4.5981    0.0000 O   0  0  0  0  0  0  0  0  0  0  0  0
   10.6279    2.0000    0.0000 O   0  0  0  0  0  0  0  0  0  0  0  0
    7.6279    0.2679    0.0000 N   0  0  0  0  0  0  0  0  0  0  0  0
    8.6279    2.0000    0.0000 N   0  0  0  0  0  0  0  0  0  0  0  0
    3.7320   -2.5981    0.0000 N   0  0  0  0  0  0  0  0  0  0  0  0
    4.5981   -0.0981    0.0000 N   0  0  0  0  0  0  0  0  0  0  0  0
    5.5443   -1.4028    0.0000 N   0  0  0  0  0  0  0  0  0  0  0  0
    8.6279    0.2679    0.0000 C   0  0  0  0  0  0  0  0  0  0  0  0
    7.1279    1.1340    0.0000 C   0  0  0  0  0  0  0  0  0  0  0  0
    9.1279    1.1340    0.0000 C   0  0  0  0  0  0  0  0  0  0  0  0
    7.6279    2.0000    0.0000 C   0  0  0  0  0  0  0  0  0  0  0  0
    7.1279   -0.5981    0.0000 C   0  0  0  0  0  0  0  0  0  0  0  0
    6.1279   -0.5981    0.0000 C   0  0  0  0  0  0  0  0  0  0  0  0
    9.1279    2.8660    0.0000 C   0  0  0  0  0  0  0  0  0  0  0  0
    4.5981   -1.0981    0.0000 C   0  0  0  0  0  0  0  0  0  0  0  0
    3.7320   -1.5981    0.0000 C   0  0  0  0  0  0  0  0  0  0  0  0
    5.5443    0.2067    0.0000 C   0  0  0  0  0  0  0  0  0  0  0  0
    4.5981   -3.0981    0.0000 C   0  0  0  0  0  0  0  0  0  0  0  0
    2.8660   -3.0981    0.0000 C   0  0  0  0  0  0  0  0  0  0  0  0
    2.8660   -1.0981    0.0000 C   0  0  0  0  0  0  0  0  0  0  0  0
    4.5981   -4.0981    0.0000 C   0  0  0  0  0  0  0  0  0  0  0  0
    2.8660   -4.0981    0.0000 C   0  0  0  0  0  0  0  0  0  0  0  0
    3.7320    0.4019    0.0000 C   0  0  0  0  0  0  0  0  0  0  0  0
    2.8660   -0.0981    0.0000 C   0  0  0  0  0  0  0  0  0  0  0  0
   10.1279    2.8660    0.0000 C   0  0  0  0  0  0  0  0  0  0  0  0
    8.6279    3.7320    0.0000 C   0  0  0  0  0  0  0  0  0  0  0  0
    2.0000    0.4019    0.0000 C   0  0  0  0  0  0  0  0  0  0  0  0
   10.6279    3.7320    0.0000 C   0  0  0  0  0  0  0  0  0  0  0  0
    9.1279    4.5981    0.0000 C   0  0  0  0  0  0  0  0  0  0  0  0
   10.1279    4.5981    0.0000 C   0  0  0  0  0  0  0  0  0  0  0  0
   11.6279    2.0000    0.0000 C   0  0  0  0  0  0  0  0  0  0  0  0
    8.5202   -0.3426    0.0000 H   0  0  0  0  0  0  0  0  0  0  0  0
    9.2105    0.0559    0.0000 H   0  0  0  0  0  0  0  0  0  0  0  0
    6.6530    1.5325    0.0000 H   0  0  0  0  0  0  0  0  0  0  0  0
    6.6530    0.7354    0.0000 H   0  0  0  0  0  0  0  0  0  0  0  0
    9.6028    0.7354    0.0000 H   0  0  0  0  0  0  0  0  0  0  0  0
    9.6028    1.5325    0.0000 H   0  0  0  0  0  0  0  0  0  0  0  0
    7.7356    2.6106    0.0000 H   0  0  0  0  0  0  0  0  0  0  0  0
    7.0453    2.2120    0.0000 H   0  0  0  0  0  0  0  0  0  0  0  0
    7.0202   -1.2087    0.0000 H   0  0  0  0  0  0  0  0  0  0  0  0
    7.7105   -0.8101    0.0000 H   0  0  0  0  0  0  0  0  0  0  0  0
    5.7369    0.7960    0.0000 H   0  0  0  0  0  0  0  0  0  0  0  0
    5.2087   -3.2057    0.0000 H   0  0  0  0  0  0  0  0  0  0  0  0
    4.8101   -2.5155    0.0000 H   0  0  0  0  0  0  0  0  0  0  0  0
    2.6540   -2.5155    0.0000 H   0  0  0  0  0  0  0  0  0  0  0  0
    2.2554   -3.2057    0.0000 H   0  0  0  0  0  0  0  0  0  0  0  0
    2.3291   -1.4081    0.0000 H   0  0  0  0  0  0  0  0  0  0  0  0
    4.8101   -4.6807    0.0000 H   0  0  0  0  0  0  0  0  0  0  0  0
    5.2087   -3.9904    0.0000 H   0  0  0  0  0  0  0  0  0  0  0  0
    2.2554   -3.9904    0.0000 H   0  0  0  0  0  0  0  0  0  0  0  0
    2.6540   -4.6807    0.0000 H   0  0  0  0  0  0  0  0  0  0  0  0
    3.7320    1.0219    0.0000 H   0  0  0  0  0  0  0  0  0  0  0  0
    8.0079    3.7320    0.0000 H   0  0  0  0  0  0  0  0  0  0  0  0
    2.3100    0.9389    0.0000 H   0  0  0  0  0  0  0  0  0  0  0  0
    1.4631    0.7119    0.0000 H   0  0  0  0  0  0  0  0  0  0  0  0
    1.6900   -0.1350    0.0000 H   0  0  0  0  0  0  0  0  0  0  0  0
   11.2479    3.7320    0.0000 H   0  0  0  0  0  0  0  0  0  0  0  0
    8.8179    5.1350    0.0000 H   0  0  0  0  0  0  0  0  0  0  0  0
   10.4379    5.1350    0.0000 H   0  0  0  0  0  0  0  0  0  0  0  0
   11.6279    1.3800    0.0000 H   0  0  0  0  0  0  0  0  0  0  0  0
   12.2479    2.0000    0.0000 H   0  0  0  0  0  0  0  0  0  0  0  0
   11.6279    2.6200    0.0000 H   0  0  0  0  0  0  0  0  0  0  0  0
  1 21  1  0  0  0  0
  1 22  1  0  0  0  0
  2 25  1  0  0  0  0
  2 31  1  0  0  0  0
  3  8  1  0  0  0  0
  3  9  1  0  0  0  0
  3 12  1  0  0  0  0
  4 10  1  0  0  0  0
  4 11  1  0  0  0  0
  4 14  1  0  0  0  0
  5 16  1  0  0  0  0
  5 18  1  0  0  0  0
  5 19  1  0  0  0  0
  6 15  1  0  0  0  0
  6 17  1  0  0  0  0
  6 23  1  0  0  0  0
  7 13  1  0  0  0  0
  7 15  2  0  0  0  0
  8 10  1  0  0  0  0
  8 32  1  0  0  0  0
  8 33  1  0  0  0  0
  9 11  1  0  0  0  0
  9 34  1  0  0  0  0
  9 35  1  0  0  0  0
 10 36  1  0  0  0  0
 10 37  1  0  0  0  0
 11 38  1  0  0  0  0
 11 39  1  0  0  0  0
 12 13  1  0  0  0  0
 12 40  1  0  0  0  0
 12 41  1  0  0  0  0
 13 17  2  0  0  0  0
 14 25  1  0  0  0  0
 14 26  2  0  0  0  0
 15 16  1  0  0  0  0
 16 20  2  0  0  0  0
 17 42  1  0  0  0  0
 18 21  1  0  0  0  0
 18 43  1  0  0  0  0
 18 44  1  0  0  0  0
 19 22  1  0  0  0  0
 19 45  1  0  0  0  0
 19 46  1  0  0  0  0
 20 24  1  0  0  0  0
 20 47  1  0  0  0  0
 21 48  1  0  0  0  0
 21 49  1  0  0  0  0
 22 50  1  0  0  0  0
 22 51  1  0  0  0  0
 23 24  2  0  0  0  0
 23 52  1  0  0  0  0
 24 27  1  0  0  0  0
 25 28  2  0  0  0  0
 26 29  1  0  0  0  0
 26 53  1  0  0  0  0
 27 54  1  0  0  0  0
 27 55  1  0  0  0  0
 27 56  1  0  0  0  0
 28 30  1  0  0  0  0
 28 57  1  0  0  0  0
 29 30  2  0  0  0  0
 29 58  1  0  0  0  0
 30 59  1  0  0  0  0
 31 60  1  0  0  0  0
 31 61  1  0  0  0  0
 31 62  1  0  0  0  0
M  END
> <PUBCHEM_COMPOUND_CID>
11633170

> <PUBCHEM_COMPOUND_CANONICALIZED>
1

> <PUBCHEM_CACTVS_COMPLEXITY>
566

> <PUBCHEM_CACTVS_HBOND_ACCEPTOR>
6

> <PUBCHEM_CACTVS_HBOND_DONOR>
0

> <PUBCHEM_CACTVS_ROTATABLE_BOND>
5

> <PUBCHEM_CACTVS_SUBSKEYS>
AAADceB7sAAAAAAAAAAAAAAAAAAAAWAAAAA8WLEAAAAAAFgB8AAAHgAAAAAADAzhnwY/9p8MHACgAzZnZACCiC0xMqAJ2CA/fJiObuLE+ZuXMChswBPY6CeQQAAMAAAAAAAAEAAAAAAAAAAgAAAAAAAAAA==

> <PUBCHEM_IUPAC_OPENEYE_NAME>
4-[2-[[4-(2-methoxyphenyl)piperazin-1-yl]methyl]-6-methyl-imidazo[1,2-a]pyridin-8-yl]morpholine

> <PUBCHEM_IUPAC_CAS_NAME>
4-[2-[[4-(2-methoxyphenyl)-1-piperazinyl]methyl]-6-methyl-8-imidazo[1,2-a]pyridinyl]morpholine

> <PUBCHEM_IUPAC_NAME_MARKUP>
4-[2-[[4-(2-methoxyphenyl)piperazin-1-yl]methyl]-6-methylimidazo[1,2-a]pyridin-8-yl]morpholine

> <PUBCHEM_IUPAC_NAME>
4-[2-[[4-(2-methoxyphenyl)piperazin-1-yl]methyl]-6-methylimidazo[1,2-a]pyridin-8-yl]morpholine

> <PUBCHEM_IUPAC_SYSTEMATIC_NAME>
4-[2-[[4-(2-methoxyphenyl)piperazin-1-yl]methyl]-6-methyl-imidazo[1,2-a]pyridin-8-yl]morpholine

> <PUBCHEM_IUPAC_TRADITIONAL_NAME>
4-[2-[[4-(2-methoxyphenyl)piperazino]methyl]-6-methyl-imidazo[1,2-a]pyridin-8-yl]morpholine

> <PUBCHEM_IUPAC_INCHI>
InChI=1S/C24H31N5O2/c1-19-15-22(28-11-13-31-14-12-28)24-25-20(18-29(24)16-19)17-26-7-9-27(10-8-26)21-5-3-4-6-23(21)30-2/h3-6,15-16,18H,7-14,17H2,1-2H3

> <PUBCHEM_IUPAC_INCHIKEY>
UKYZTZPUJPHXDZ-UHFFFAOYSA-N

> <PUBCHEM_XLOGP3_AA>
3.3

> <PUBCHEM_EXACT_MASS>
421.24777525

> <PUBCHEM_MOLECULAR_FORMULA>
C24H31N5O2

> <PUBCHEM_MOLECULAR_WEIGHT>
421.5

> <PUBCHEM_OPENEYE_CAN_SMILES>
CC1=CN2C=C(N=C2C(=C1)N3CCOCC3)CN4CCN(CC4)C5=CC=CC=C5OC

> <PUBCHEM_OPENEYE_ISO_SMILES>
CC1=CN2C=C(N=C2C(=C1)N3CCOCC3)CN4CCN(CC4)C5=CC=CC=C5OC

> <PUBCHEM_CACTVS_TPSA>
45.5

> <PUBCHEM_MONOISOTOPIC_WEIGHT>
421.24777525

> <PUBCHEM_TOTAL_CHARGE>
0

> <PUBCHEM_HEAVY_ATOM_COUNT>
31

> <PUBCHEM_ATOM_DEF_STEREO_COUNT>
0

> <PUBCHEM_ATOM_UDEF_STEREO_COUNT>
0

> <PUBCHEM_BOND_DEF_STEREO_COUNT>
0

> <PUBCHEM_BOND_UDEF_STEREO_COUNT>
0

> <PUBCHEM_ISOTOPIC_ATOM_COUNT>
0

> <PUBCHEM_COMPONENT_COUNT>
1

> <PUBCHEM_CACTVS_TAUTO_COUNT>
-1

> <PUBCHEM_COORDINATE_TYPE>
1
5
255

> <PUBCHEM_BONDANNOTATIONS>
13  17  8
14  25  8
14  26  8
15  16  8
16  20  8
20  24  8
23  24  8
25  28  8
26  29  8
28  30  8
29  30  8
6  15  8
6  17  8
6  23  8
7  13  8
7  15  8

$$$$
