10479214
  -OEChem-09292322252D

 66 70  0     0  0  0  0  0  0999 V2000
    9.2619    2.9641    0.0000 O   0  0  0  0  0  0  0  0  0  0  0  0
   15.7619   -1.3660    0.0000 O   0  0  0  0  0  0  0  0  0  0  0  0
   12.7619    0.3660    0.0000 N   0  0  0  0  0  0  0  0  0  0  0  0
   13.7619   -1.3660    0.0000 N   0  0  0  0  0  0  0  0  0  0  0  0
    3.7320    3.4641    0.0000 N   0  0  0  0  0  0  0  0  0  0  0  0
    4.6783    2.1594    0.0000 N   0  0  0  0  0  0  0  0  0  0  0  0
   12.2619   -0.5000    0.0000 C   0  0  0  0  0  0  0  0  0  0  0  0
   13.7619    0.3660    0.0000 C   0  0  0  0  0  0  0  0  0  0  0  0
   12.7619   -1.3660    0.0000 C   0  0  0  0  0  0  0  0  0  0  0  0
   14.2619   -0.5000    0.0000 C   0  0  0  0  0  0  0  0  0  0  0  0
   12.2619    1.2320    0.0000 C   0  0  0  0  0  0  0  0  0  0  0  0
   11.2619    1.2320    0.0000 C   0  0  0  0  0  0  0  0  0  0  0  0
   14.2619   -2.2320    0.0000 C   0  0  0  0  0  0  0  0  0  0  0  0
   10.7619    2.0981    0.0000 C   0  0  0  0  0  0  0  0  0  0  0  0
   15.2619   -2.2320    0.0000 C   0  0  0  0  0  0  0  0  0  0  0  0
    9.7619    2.0981    0.0000 C   0  0  0  0  0  0  0  0  0  0  0  0
   13.7619   -3.0981    0.0000 C   0  0  0  0  0  0  0  0  0  0  0  0
   15.7619   -3.0981    0.0000 C   0  0  0  0  0  0  0  0  0  0  0  0
   14.2619   -3.9641    0.0000 C   0  0  0  0  0  0  0  0  0  0  0  0
   15.2619   -3.9641    0.0000 C   0  0  0  0  0  0  0  0  0  0  0  0
    8.2619    2.9641    0.0000 C   0  0  0  0  0  0  0  0  0  0  0  0
   16.7619   -1.3660    0.0000 C   0  0  0  0  0  0  0  0  0  0  0  0
    7.7619    3.8301    0.0000 C   0  0  0  0  0  0  0  0  0  0  0  0
    7.7619    2.0981    0.0000 C   0  0  0  0  0  0  0  0  0  0  0  0
    6.2619    2.9641    0.0000 C   0  0  0  0  0  0  0  0  0  0  0  0
    6.7619    3.8301    0.0000 C   0  0  0  0  0  0  0  0  0  0  0  0
    6.7619    2.0981    0.0000 C   0  0  0  0  0  0  0  0  0  0  0  0
    5.2619    2.9641    0.0000 C   0  0  0  0  0  0  0  0  0  0  0  0
    4.6783    3.7688    0.0000 C   0  0  0  0  0  0  0  0  0  0  0  0
    3.7320    2.4641    0.0000 C   0  0  0  0  0  0  0  0  0  0  0  0
    2.8660    3.9641    0.0000 C   0  0  0  0  0  0  0  0  0  0  0  0
    2.8660    1.9641    0.0000 C   0  0  0  0  0  0  0  0  0  0  0  0
    2.0000    3.4641    0.0000 C   0  0  0  0  0  0  0  0  0  0  0  0
    2.0000    2.4641    0.0000 C   0  0  0  0  0  0  0  0  0  0  0  0
   11.7869   -0.1015    0.0000 H   0  0  0  0  0  0  0  0  0  0  0  0
   11.7869   -0.8985    0.0000 H   0  0  0  0  0  0  0  0  0  0  0  0
   14.3445    0.5781    0.0000 H   0  0  0  0  0  0  0  0  0  0  0  0
   13.6542    0.9766    0.0000 H   0  0  0  0  0  0  0  0  0  0  0  0
   12.1793   -1.5781    0.0000 H   0  0  0  0  0  0  0  0  0  0  0  0
   12.8695   -1.9766    0.0000 H   0  0  0  0  0  0  0  0  0  0  0  0
   14.7368   -0.8985    0.0000 H   0  0  0  0  0  0  0  0  0  0  0  0
   14.7368   -0.1015    0.0000 H   0  0  0  0  0  0  0  0  0  0  0  0
   12.8445    1.4441    0.0000 H   0  0  0  0  0  0  0  0  0  0  0  0
   12.1542    1.8426    0.0000 H   0  0  0  0  0  0  0  0  0  0  0  0
   10.6793    1.0200    0.0000 H   0  0  0  0  0  0  0  0  0  0  0  0
   11.3695    0.6215    0.0000 H   0  0  0  0  0  0  0  0  0  0  0  0
   11.3445    2.3101    0.0000 H   0  0  0  0  0  0  0  0  0  0  0  0
   10.6542    2.7087    0.0000 H   0  0  0  0  0  0  0  0  0  0  0  0
    9.1793    1.8860    0.0000 H   0  0  0  0  0  0  0  0  0  0  0  0
    9.8695    1.4875    0.0000 H   0  0  0  0  0  0  0  0  0  0  0  0
   13.1419   -3.0981    0.0000 H   0  0  0  0  0  0  0  0  0  0  0  0
   16.3819   -3.0981    0.0000 H   0  0  0  0  0  0  0  0  0  0  0  0
   13.9519   -4.5010    0.0000 H   0  0  0  0  0  0  0  0  0  0  0  0
   15.5719   -4.5010    0.0000 H   0  0  0  0  0  0  0  0  0  0  0  0
   16.7619   -1.9860    0.0000 H   0  0  0  0  0  0  0  0  0  0  0  0
   17.3819   -1.3660    0.0000 H   0  0  0  0  0  0  0  0  0  0  0  0
   16.7619   -0.7460    0.0000 H   0  0  0  0  0  0  0  0  0  0  0  0
    8.0719    4.3671    0.0000 H   0  0  0  0  0  0  0  0  0  0  0  0
    8.0719    1.5611    0.0000 H   0  0  0  0  0  0  0  0  0  0  0  0
    6.4519    4.3671    0.0000 H   0  0  0  0  0  0  0  0  0  0  0  0
    6.4519    1.5611    0.0000 H   0  0  0  0  0  0  0  0  0  0  0  0
    4.8709    4.3582    0.0000 H   0  0  0  0  0  0  0  0  0  0  0  0
    2.8660    4.5841    0.0000 H   0  0  0  0  0  0  0  0  0  0  0  0
    2.8660    1.3441    0.0000 H   0  0  0  0  0  0  0  0  0  0  0  0
    1.4631    3.7741    0.0000 H   0  0  0  0  0  0  0  0  0  0  0  0
    1.4631    2.1541    0.0000 H   0  0  0  0  0  0  0  0  0  0  0  0
  1 16  1  0  0  0  0
  1 21  1  0  0  0  0
  2 15  1  0  0  0  0
  2 22  1  0  0  0  0
  3  7  1  0  0  0  0
  3  8  1  0  0  0  0
  3 11  1  0  0  0  0
  4  9  1  0  0  0  0
  4 10  1  0  0  0  0
  4 13  1  0  0  0  0
  5 29  1  0  0  0  0
  5 30  1  0  0  0  0
  5 31  1  0  0  0  0
  6 28  1  0  0  0  0
  6 30  2  0  0  0  0
  7  9  1  0  0  0  0
  7 35  1  0  0  0  0
  7 36  1  0  0  0  0
  8 10  1  0  0  0  0
  8 37  1  0  0  0  0
  8 38  1  0  0  0  0
  9 39  1  0  0  0  0
  9 40  1  0  0  0  0
 10 41  1  0  0  0  0
 10 42  1  0  0  0  0
 11 12  1  0  0  0  0
 11 43  1  0  0  0  0
 11 44  1  0  0  0  0
 12 14  1  0  0  0  0
 12 45  1  0  0  0  0
 12 46  1  0  0  0  0
 13 15  1  0  0  0  0
 13 17  2  0  0  0  0
 14 16  1  0  0  0  0
 14 47  1  0  0  0  0
 14 48  1  0  0  0  0
 15 18  2  0  0  0  0
 16 49  1  0  0  0  0
 16 50  1  0  0  0  0
 17 19  1  0  0  0  0
 17 51  1  0  0  0  0
 18 20  1  0  0  0  0
 18 52  1  0  0  0  0
 19 20  2  0  0  0  0
 19 53  1  0  0  0  0
 20 54  1  0  0  0  0
 21 23  2  0  0  0  0
 21 24  1  0  0  0  0
 22 55  1  0  0  0  0
 22 56  1  0  0  0  0
 22 57  1  0  0  0  0
 23 26  1  0  0  0  0
 23 58  1  0  0  0  0
 24 27  2  0  0  0  0
 24 59  1  0  0  0  0
 25 26  2  0  0  0  0
 25 27  1  0  0  0  0
 25 28  1  0  0  0  0
 26 60  1  0  0  0  0
 27 61  1  0  0  0  0
 28 29  2  0  0  0  0
 29 62  1  0  0  0  0
 30 32  1  0  0  0  0
 31 33  2  0  0  0  0
 31 63  1  0  0  0  0
 32 34  2  0  0  0  0
 32 64  1  0  0  0  0
 33 34  1  0  0  0  0
 33 65  1  0  0  0  0
 34 66  1  0  0  0  0
M  END
> <PUBCHEM_COMPOUND_CID>
10479214

> <PUBCHEM_COMPOUND_CANONICALIZED>
1

> <PUBCHEM_CACTVS_COMPLEXITY>
591

> <PUBCHEM_CACTVS_HBOND_ACCEPTOR>
5

> <PUBCHEM_CACTVS_HBOND_DONOR>
0

> <PUBCHEM_CACTVS_ROTATABLE_BOND>
9

> <PUBCHEM_CACTVS_SUBSKEYS>
AAADcfB7sAAAAAAAAAAAAAAAAAAAAWAAAAA8eIEAAAAAAFgB9AAAHgAAAAAADAzhnwY/9p8MHACgAzZnZACCiC0xMqAJ2CA/fJiObuLEuZuXOCjswBPY6Cew0IMOIAAAAAAAEABAAAAAAAAgAAAAAAAAAA==

> <PUBCHEM_IUPAC_OPENEYE_NAME>
2-[4-[4-[4-(2-methoxyphenyl)piperazin-1-yl]butoxy]phenyl]imidazo[1,2-a]pyridine

> <PUBCHEM_IUPAC_CAS_NAME>
2-[4-[4-[4-(2-methoxyphenyl)-1-piperazinyl]butoxy]phenyl]imidazo[1,2-a]pyridine

> <PUBCHEM_IUPAC_NAME_MARKUP>
2-[4-[4-[4-(2-methoxyphenyl)piperazin-1-yl]butoxy]phenyl]imidazo[1,2-a]pyridine

> <PUBCHEM_IUPAC_NAME>
2-[4-[4-[4-(2-methoxyphenyl)piperazin-1-yl]butoxy]phenyl]imidazo[1,2-a]pyridine

> <PUBCHEM_IUPAC_SYSTEMATIC_NAME>
2-[4-[4-[4-(2-methoxyphenyl)piperazin-1-yl]butoxy]phenyl]imidazo[1,2-a]pyridine

> <PUBCHEM_IUPAC_TRADITIONAL_NAME>
2-[4-[4-[4-(2-methoxyphenyl)piperazino]butoxy]phenyl]imidazo[1,2-a]pyridine

> <PUBCHEM_IUPAC_INCHI>
InChI=1S/C28H32N4O2/c1-33-27-9-3-2-8-26(27)31-19-17-30(18-20-31)15-6-7-21-34-24-13-11-23(12-14-24)25-22-32-16-5-4-10-28(32)29-25/h2-5,8-14,16,22H,6-7,15,17-21H2,1H3

> <PUBCHEM_IUPAC_INCHIKEY>
LUUKEDLOUSMCGZ-UHFFFAOYSA-N

> <PUBCHEM_XLOGP3_AA>
5.7

> <PUBCHEM_EXACT_MASS>
456.25252628

> <PUBCHEM_MOLECULAR_FORMULA>
C28H32N4O2

> <PUBCHEM_MOLECULAR_WEIGHT>
456.6

> <PUBCHEM_OPENEYE_CAN_SMILES>
COC1=CC=CC=C1N2CCN(CC2)CCCCOC3=CC=C(C=C3)C4=CN5C=CC=CC5=N4

> <PUBCHEM_OPENEYE_ISO_SMILES>
COC1=CC=CC=C1N2CCN(CC2)CCCCOC3=CC=C(C=C3)C4=CN5C=CC=CC5=N4

> <PUBCHEM_CACTVS_TPSA>
42.2

> <PUBCHEM_MONOISOTOPIC_WEIGHT>
456.25252628

> <PUBCHEM_TOTAL_CHARGE>
0

> <PUBCHEM_HEAVY_ATOM_COUNT>
34

> <PUBCHEM_ATOM_DEF_STEREO_COUNT>
0

> <PUBCHEM_ATOM_UDEF_STEREO_COUNT>
0

> <PUBCHEM_BOND_DEF_STEREO_COUNT>
0

> <PUBCHEM_BOND_UDEF_STEREO_COUNT>
0

> <PUBCHEM_ISOTOPIC_ATOM_COUNT>
0

> <PUBCHEM_COMPONENT_COUNT>
1

> <PUBCHEM_CACTVS_TAUTO_COUNT>
-1

> <PUBCHEM_COORDINATE_TYPE>
1
5
255

> <PUBCHEM_BONDANNOTATIONS>
13  15  8
13  17  8
15  18  8
17  19  8
18  20  8
19  20  8
21  23  8
21  24  8
23  26  8
24  27  8
25  26  8
25  27  8
28  29  8
30  32  8
31  33  8
32  34  8
33  34  8
5  29  8
5  30  8
5  31  8
6  28  8
6  30  8

$$$$
