162673328
  -OEChem-09292322012D

 72 75  0     1  0  0  0  0  0999 V2000
   11.2619    2.8665    0.0000 O   0  0  0  0  0  0  0  0  0  0  0  0
   14.2619   -4.0617    0.0000 O   0  0  0  0  0  0  0  0  0  0  0  0
    6.2619    4.5986    0.0000 N   0  0  3  0  0  0  0  0  0  0  0  0
    9.7619    2.0005    0.0000 N   0  0  0  0  0  0  0  0  0  0  0  0
    5.2619    4.5986    0.0000 C   0  0  0  0  0  0  0  0  0  0  0  0
    4.6783    5.4033    0.0000 C   0  0  0  0  0  0  0  0  0  0  0  0
    4.6783    3.7939    0.0000 C   0  0  0  0  0  0  0  0  0  0  0  0
    3.7320    5.0986    0.0000 C   0  0  0  0  0  0  0  0  0  0  0  0
    3.7320    4.0986    0.0000 C   0  0  0  0  0  0  0  0  0  0  0  0
    6.7619    3.7326    0.0000 C   0  0  0  0  0  0  0  0  0  0  0  0
    6.7619    5.4646    0.0000 C   0  0  0  0  0  0  0  0  0  0  0  0
    7.7619    3.7326    0.0000 C   0  0  0  0  0  0  0  0  0  0  0  0
    2.8660    5.5986    0.0000 C   0  0  0  0  0  0  0  0  0  0  0  0
    2.8660    3.5986    0.0000 C   0  0  0  0  0  0  0  0  0  0  0  0
    7.7619    5.4646    0.0000 C   0  0  0  0  0  0  0  0  0  0  0  0
    8.2619    2.8665    0.0000 C   0  0  0  0  0  0  0  0  0  0  0  0
    2.0000    5.0986    0.0000 C   0  0  0  0  0  0  0  0  0  0  0  0
    2.0000    4.0986    0.0000 C   0  0  0  0  0  0  0  0  0  0  0  0
    8.2619    6.3306    0.0000 C   0  0  0  0  0  0  0  0  0  0  0  0
    9.2619    2.8665    0.0000 C   0  0  0  0  0  0  0  0  0  0  0  0
   10.7619    2.0005    0.0000 C   0  0  0  0  0  0  0  0  0  0  0  0
   11.2619    1.1345    0.0000 C   0  0  0  0  0  0  0  0  0  0  0  0
   12.2619    1.1345    0.0000 C   0  0  0  0  0  0  0  0  0  0  0  0
   10.7619    0.2685    0.0000 C   0  0  0  0  0  0  0  0  0  0  0  0
   12.2619   -0.5976    0.0000 C   0  0  0  0  0  0  0  0  0  0  0  0
   12.7619    0.2685    0.0000 C   0  0  0  0  0  0  0  0  0  0  0  0
   11.2619   -0.5976    0.0000 C   0  0  0  0  0  0  0  0  0  0  0  0
   12.7619   -1.4636    0.0000 C   0  0  0  0  0  0  0  0  0  0  0  0
   13.7619   -1.4636    0.0000 C   0  0  0  0  0  0  0  0  0  0  0  0
   12.2619   -2.3296    0.0000 C   0  0  0  0  0  0  0  0  0  0  0  0
   14.2619   -2.3296    0.0000 C   0  0  0  0  0  0  0  0  0  0  0  0
   12.7619   -3.1956    0.0000 C   0  0  0  0  0  0  0  0  0  0  0  0
   13.7619   -3.1956    0.0000 C   0  0  0  0  0  0  0  0  0  0  0  0
   15.2619   -4.0617    0.0000 C   0  0  0  0  0  0  0  0  0  0  0  0
   15.7619   -4.9277    0.0000 C   0  0  0  0  0  0  0  0  0  0  0  0
   16.2619   -5.7937    0.0000 C   0  0  0  0  0  0  0  0  0  0  0  0
    5.5436    4.0463    0.0000 H   0  0  0  0  0  0  0  0  0  0  0  0
    5.2156    5.7126    0.0000 H   0  0  0  0  0  0  0  0  0  0  0  0
    4.4272    5.9702    0.0000 H   0  0  0  0  0  0  0  0  0  0  0  0
    4.4272    3.2270    0.0000 H   0  0  0  0  0  0  0  0  0  0  0  0
    5.2156    3.4846    0.0000 H   0  0  0  0  0  0  0  0  0  0  0  0
    6.1793    3.5205    0.0000 H   0  0  0  0  0  0  0  0  0  0  0  0
    6.8695    3.1220    0.0000 H   0  0  0  0  0  0  0  0  0  0  0  0
    6.8695    6.0752    0.0000 H   0  0  0  0  0  0  0  0  0  0  0  0
    6.1793    5.6767    0.0000 H   0  0  0  0  0  0  0  0  0  0  0  0
    8.3445    3.9446    0.0000 H   0  0  0  0  0  0  0  0  0  0  0  0
    7.6542    4.3431    0.0000 H   0  0  0  0  0  0  0  0  0  0  0  0
    2.8660    6.2186    0.0000 H   0  0  0  0  0  0  0  0  0  0  0  0
    2.8660    2.9786    0.0000 H   0  0  0  0  0  0  0  0  0  0  0  0
    7.6542    4.8540    0.0000 H   0  0  0  0  0  0  0  0  0  0  0  0
    8.3445    5.2526    0.0000 H   0  0  0  0  0  0  0  0  0  0  0  0
    7.6793    2.6545    0.0000 H   0  0  0  0  0  0  0  0  0  0  0  0
    8.3695    2.2560    0.0000 H   0  0  0  0  0  0  0  0  0  0  0  0
    1.4631    5.4086    0.0000 H   0  0  0  0  0  0  0  0  0  0  0  0
    1.4631    3.7886    0.0000 H   0  0  0  0  0  0  0  0  0  0  0  0
    8.7988    6.0206    0.0000 H   0  0  0  0  0  0  0  0  0  0  0  0
    8.5719    6.8676    0.0000 H   0  0  0  0  0  0  0  0  0  0  0  0
    7.7249    6.6406    0.0000 H   0  0  0  0  0  0  0  0  0  0  0  0
    9.8445    3.0786    0.0000 H   0  0  0  0  0  0  0  0  0  0  0  0
    9.1542    3.4771    0.0000 H   0  0  0  0  0  0  0  0  0  0  0  0
    9.4519    1.4636    0.0000 H   0  0  0  0  0  0  0  0  0  0  0  0
   12.5719    1.6714    0.0000 H   0  0  0  0  0  0  0  0  0  0  0  0
   10.1419    0.2685    0.0000 H   0  0  0  0  0  0  0  0  0  0  0  0
   13.3819    0.2685    0.0000 H   0  0  0  0  0  0  0  0  0  0  0  0
   10.9519   -1.1345    0.0000 H   0  0  0  0  0  0  0  0  0  0  0  0
   14.0719   -0.9266    0.0000 H   0  0  0  0  0  0  0  0  0  0  0  0
   11.6419   -2.3296    0.0000 H   0  0  0  0  0  0  0  0  0  0  0  0
   14.8819   -2.3296    0.0000 H   0  0  0  0  0  0  0  0  0  0  0  0
   12.4519   -3.7326    0.0000 H   0  0  0  0  0  0  0  0  0  0  0  0
   15.8445   -3.8496    0.0000 H   0  0  0  0  0  0  0  0  0  0  0  0
   15.1542   -3.4511    0.0000 H   0  0  0  0  0  0  0  0  0  0  0  0
   16.5719   -6.3306    0.0000 H   0  0  0  0  0  0  0  0  0  0  0  0
  1 21  2  0  0  0  0
  2 33  1  0  0  0  0
  2 34  1  0  0  0  0
  3  5  1  0  0  0  0
  3 10  1  0  0  0  0
  3 11  1  0  0  0  0
  4 20  1  0  0  0  0
  4 21  1  0  0  0  0
  4 61  1  0  0  0  0
  5  6  1  0  0  0  0
  5  7  1  0  0  0  0
  5 37  1  0  0  0  0
  6  8  1  0  0  0  0
  6 38  1  0  0  0  0
  6 39  1  0  0  0  0
  7  9  1  0  0  0  0
  7 40  1  0  0  0  0
  7 41  1  0  0  0  0
  8  9  1  0  0  0  0
  8 13  2  0  0  0  0
  9 14  2  0  0  0  0
 10 12  1  0  0  0  0
 10 42  1  0  0  0  0
 10 43  1  0  0  0  0
 11 15  1  0  0  0  0
 11 44  1  0  0  0  0
 11 45  1  0  0  0  0
 12 16  1  0  0  0  0
 12 46  1  0  0  0  0
 12 47  1  0  0  0  0
 13 17  1  0  0  0  0
 13 48  1  0  0  0  0
 14 18  1  0  0  0  0
 14 49  1  0  0  0  0
 15 19  1  0  0  0  0
 15 50  1  0  0  0  0
 15 51  1  0  0  0  0
 16 20  1  0  0  0  0
 16 52  1  0  0  0  0
 16 53  1  0  0  0  0
 17 18  2  0  0  0  0
 17 54  1  0  0  0  0
 18 55  1  0  0  0  0
 19 56  1  0  0  0  0
 19 57  1  0  0  0  0
 19 58  1  0  0  0  0
 20 59  1  0  0  0  0
 20 60  1  0  0  0  0
 21 22  1  0  0  0  0
 22 23  2  0  0  0  0
 22 24  1  0  0  0  0
 23 26  1  0  0  0  0
 23 62  1  0  0  0  0
 24 27  2  0  0  0  0
 24 63  1  0  0  0  0
 25 26  2  0  0  0  0
 25 27  1  0  0  0  0
 25 28  1  0  0  0  0
 26 64  1  0  0  0  0
 27 65  1  0  0  0  0
 28 29  2  0  0  0  0
 28 30  1  0  0  0  0
 29 31  1  0  0  0  0
 29 66  1  0  0  0  0
 30 32  2  0  0  0  0
 30 67  1  0  0  0  0
 31 33  2  0  0  0  0
 31 68  1  0  0  0  0
 32 33  1  0  0  0  0
 32 69  1  0  0  0  0
 34 35  1  0  0  0  0
 34 70  1  0  0  0  0
 34 71  1  0  0  0  0
 35 36  3  0  0  0  0
 36 72  1  0  0  0  0
M  END
> <PUBCHEM_COMPOUND_CID>
162673328

> <PUBCHEM_COMPOUND_CANONICALIZED>
1

> <PUBCHEM_CACTVS_COMPLEXITY>
684

> <PUBCHEM_CACTVS_HBOND_ACCEPTOR>
3

> <PUBCHEM_CACTVS_HBOND_DONOR>
1

> <PUBCHEM_CACTVS_ROTATABLE_BOND>
12

> <PUBCHEM_CACTVS_SUBSKEYS>
AAADcfB/MAAAAAAAAAAAAAAAAAAAAYAAAAAwYMAAAAAAAGABUAAAHgAQAAAADCzhmAYyBoPABADIGiFSEACCCAAkIAAIiIEODMgMJjKEtRuGOSjk1hGIqYeYyPCO4AAAAAAQAADAAAAAACAAACAACAAAAA==

> <PUBCHEM_IUPAC_OPENEYE_NAME>
N-[4-[indan-2-yl(propyl)amino]butyl]-4-(4-prop-2-ynoxyphenyl)benzamide

> <PUBCHEM_IUPAC_CAS_NAME>
N-[4-[2,3-dihydro-1H-inden-2-yl(propyl)amino]butyl]-4-(4-prop-2-ynoxyphenyl)benzamide

> <PUBCHEM_IUPAC_NAME_MARKUP>
<I>N</I>-[4-[2,3-dihydro-1<I>H</I>-inden-2-yl(propyl)amino]butyl]-4-(4-prop-2-ynoxyphenyl)benzamide

> <PUBCHEM_IUPAC_NAME>
N-[4-[2,3-dihydro-1H-inden-2-yl(propyl)amino]butyl]-4-(4-prop-2-ynoxyphenyl)benzamide

> <PUBCHEM_IUPAC_SYSTEMATIC_NAME>
N-[4-[2,3-dihydro-1H-inden-2-yl(propyl)amino]butyl]-4-(4-prop-2-ynoxyphenyl)benzamide

> <PUBCHEM_IUPAC_TRADITIONAL_NAME>
N-[4-[indan-2-yl(propyl)amino]butyl]-4-(4-propargyloxyphenyl)benzamide

> <PUBCHEM_IUPAC_INCHI>
InChI=1S/C32H36N2O2/c1-3-20-34(30-23-28-9-5-6-10-29(28)24-30)21-8-7-19-33-32(35)27-13-11-25(12-14-27)26-15-17-31(18-16-26)36-22-4-2/h2,5-6,9-18,30H,3,7-8,19-24H2,1H3,(H,33,35)

> <PUBCHEM_IUPAC_INCHIKEY>
JEGAAWNOHVANEU-UHFFFAOYSA-N

> <PUBCHEM_XLOGP3_AA>
6.6

> <PUBCHEM_EXACT_MASS>
480.277678395

> <PUBCHEM_MOLECULAR_FORMULA>
C32H36N2O2

> <PUBCHEM_MOLECULAR_WEIGHT>
480.6

> <PUBCHEM_OPENEYE_CAN_SMILES>
CCCN(CCCCNC(=O)C1=CC=C(C=C1)C2=CC=C(C=C2)OCC#C)C3CC4=CC=CC=C4C3

> <PUBCHEM_OPENEYE_ISO_SMILES>
CCCN(CCCCNC(=O)C1=CC=C(C=C1)C2=CC=C(C=C2)OCC#C)C3CC4=CC=CC=C4C3

> <PUBCHEM_CACTVS_TPSA>
41.6

> <PUBCHEM_MONOISOTOPIC_WEIGHT>
480.277678395

> <PUBCHEM_TOTAL_CHARGE>
0

> <PUBCHEM_HEAVY_ATOM_COUNT>
36

> <PUBCHEM_ATOM_DEF_STEREO_COUNT>
0

> <PUBCHEM_ATOM_UDEF_STEREO_COUNT>
0

> <PUBCHEM_BOND_DEF_STEREO_COUNT>
0

> <PUBCHEM_BOND_UDEF_STEREO_COUNT>
0

> <PUBCHEM_ISOTOPIC_ATOM_COUNT>
0

> <PUBCHEM_COMPONENT_COUNT>
1

> <PUBCHEM_CACTVS_TAUTO_COUNT>
-1

> <PUBCHEM_COORDINATE_TYPE>
1
5
255

> <PUBCHEM_BONDANNOTATIONS>
13  17  8
14  18  8
17  18  8
22  23  8
22  24  8
23  26  8
24  27  8
25  26  8
25  27  8
28  29  8
28  30  8
29  31  8
30  32  8
31  33  8
32  33  8
8  13  8
8  9  8
9  14  8

$$$$
