11277680
  -OEChem-09292322082D

 45 46  0     1  0  0  0  0  0999 V2000
    2.8660    1.7306    0.0000 O   0  0  0  0  0  0  0  0  0  0  0  0
    2.0000   -2.7694    0.0000 O   0  0  0  0  0  0  0  0  0  0  0  0
    4.5981    2.7306    0.0000 N   0  0  0  0  0  0  0  0  0  0  0  0
    3.7320   -2.7694    0.0000 N   0  0  0  0  0  0  0  0  0  0  0  0
    4.5981    1.7306    0.0000 C   0  0  3  0  0  0  0  0  0  0  0  0
    5.4071    3.3184    0.0000 C   0  0  0  0  0  0  0  0  0  0  0  0
    3.7891    3.3184    0.0000 C   0  0  0  0  0  0  0  0  0  0  0  0
    5.0981    4.2694    0.0000 C   0  0  0  0  0  0  0  0  0  0  0  0
    4.0981    4.2694    0.0000 C   0  0  0  0  0  0  0  0  0  0  0  0
    5.4641    1.2306    0.0000 C   0  0  0  0  0  0  0  0  0  0  0  0
    3.7320    1.2306    0.0000 C   0  0  0  0  0  0  0  0  0  0  0  0
    6.3301    1.7306    0.0000 C   0  0  0  0  0  0  0  0  0  0  0  0
    3.7320    0.2306    0.0000 C   0  0  0  0  0  0  0  0  0  0  0  0
    7.1962    1.2306    0.0000 C   0  0  0  0  0  0  0  0  0  0  0  0
    4.5981   -0.2694    0.0000 C   0  0  0  0  0  0  0  0  0  0  0  0
    2.8660   -0.2694    0.0000 C   0  0  0  0  0  0  0  0  0  0  0  0
    4.5981   -1.2694    0.0000 C   0  0  0  0  0  0  0  0  0  0  0  0
    2.8660   -1.2694    0.0000 C   0  0  0  0  0  0  0  0  0  0  0  0
    3.7320   -1.7694    0.0000 C   0  0  0  0  0  0  0  0  0  0  0  0
    2.8660   -3.2694    0.0000 C   0  0  0  0  0  0  0  0  0  0  0  0
    2.8660   -4.2694    0.0000 C   0  0  0  0  0  0  0  0  0  0  0  0
    5.1350    2.0406    0.0000 H   0  0  0  0  0  0  0  0  0  0  0  0
    5.7171    2.7814    0.0000 H   0  0  0  0  0  0  0  0  0  0  0  0
    5.9735    3.5705    0.0000 H   0  0  0  0  0  0  0  0  0  0  0  0
    3.2227    3.5705    0.0000 H   0  0  0  0  0  0  0  0  0  0  0  0
    3.4791    2.7814    0.0000 H   0  0  0  0  0  0  0  0  0  0  0  0
    5.7045    4.3983    0.0000 H   0  0  0  0  0  0  0  0  0  0  0  0
    5.0333    4.8860    0.0000 H   0  0  0  0  0  0  0  0  0  0  0  0
    4.1629    4.8860    0.0000 H   0  0  0  0  0  0  0  0  0  0  0  0
    3.4916    4.3983    0.0000 H   0  0  0  0  0  0  0  0  0  0  0  0
    5.0656    0.7556    0.0000 H   0  0  0  0  0  0  0  0  0  0  0  0
    5.8626    0.7556    0.0000 H   0  0  0  0  0  0  0  0  0  0  0  0
    6.7287    2.2055    0.0000 H   0  0  0  0  0  0  0  0  0  0  0  0
    5.9316    2.2055    0.0000 H   0  0  0  0  0  0  0  0  0  0  0  0
    6.8862    0.6936    0.0000 H   0  0  0  0  0  0  0  0  0  0  0  0
    7.7331    0.9206    0.0000 H   0  0  0  0  0  0  0  0  0  0  0  0
    7.5062    1.7675    0.0000 H   0  0  0  0  0  0  0  0  0  0  0  0
    5.1350    0.0406    0.0000 H   0  0  0  0  0  0  0  0  0  0  0  0
    2.3291    0.0406    0.0000 H   0  0  0  0  0  0  0  0  0  0  0  0
    5.1350   -1.5794    0.0000 H   0  0  0  0  0  0  0  0  0  0  0  0
    2.3291   -1.5794    0.0000 H   0  0  0  0  0  0  0  0  0  0  0  0
    4.2690   -3.0794    0.0000 H   0  0  0  0  0  0  0  0  0  0  0  0
    2.2460   -4.2694    0.0000 H   0  0  0  0  0  0  0  0  0  0  0  0
    2.8660   -4.8894    0.0000 H   0  0  0  0  0  0  0  0  0  0  0  0
    3.4860   -4.2694    0.0000 H   0  0  0  0  0  0  0  0  0  0  0  0
  1 11  2  0  0  0  0
  2 20  2  0  0  0  0
  3  5  1  0  0  0  0
  3  6  1  0  0  0  0
  3  7  1  0  0  0  0
  4 19  1  0  0  0  0
  4 20  1  0  0  0  0
  4 42  1  0  0  0  0
  5 10  1  0  0  0  0
  5 11  1  0  0  0  0
  5 22  1  0  0  0  0
  6  8  1  0  0  0  0
  6 23  1  0  0  0  0
  6 24  1  0  0  0  0
  7  9  1  0  0  0  0
  7 25  1  0  0  0  0
  7 26  1  0  0  0  0
  8  9  1  0  0  0  0
  8 27  1  0  0  0  0
  8 28  1  0  0  0  0
  9 29  1  0  0  0  0
  9 30  1  0  0  0  0
 10 12  1  0  0  0  0
 10 31  1  0  0  0  0
 10 32  1  0  0  0  0
 11 13  1  0  0  0  0
 12 14  1  0  0  0  0
 12 33  1  0  0  0  0
 12 34  1  0  0  0  0
 13 15  2  0  0  0  0
 13 16  1  0  0  0  0
 14 35  1  0  0  0  0
 14 36  1  0  0  0  0
 14 37  1  0  0  0  0
 15 17  1  0  0  0  0
 15 38  1  0  0  0  0
 16 18  2  0  0  0  0
 16 39  1  0  0  0  0
 17 19  2  0  0  0  0
 17 40  1  0  0  0  0
 18 19  1  0  0  0  0
 18 41  1  0  0  0  0
 20 21  1  0  0  0  0
 21 43  1  0  0  0  0
 21 44  1  0  0  0  0
 21 45  1  0  0  0  0
M  END
> <PUBCHEM_COMPOUND_CID>
11277680

> <PUBCHEM_COMPOUND_CANONICALIZED>
1

> <PUBCHEM_CACTVS_COMPLEXITY>
356

> <PUBCHEM_CACTVS_HBOND_ACCEPTOR>
3

> <PUBCHEM_CACTVS_HBOND_DONOR>
1

> <PUBCHEM_CACTVS_ROTATABLE_BOND>
6

> <PUBCHEM_CACTVS_SUBSKEYS>
AAADceB7MAAAAAAAAAAAAAAAAAAAAWAAAAAwAAAAAAAAAAABAAAAHgAQAAAADCzBmAQywIPAAACIAqVSUACCAAAlAgAIiAGIZMgIIDLAlbGEIQhglADIyYcYicCeCAAAAAAAAAAQAAAAAAAAAAAAAAAAAA==

> <PUBCHEM_IUPAC_OPENEYE_NAME>
N-[4-(2-pyrrolidin-1-ylpentanoyl)phenyl]acetamide

> <PUBCHEM_IUPAC_CAS_NAME>
N-[4-[1-oxo-2-(1-pyrrolidinyl)pentyl]phenyl]acetamide

> <PUBCHEM_IUPAC_NAME_MARKUP>
<I>N</I>-[4-(2-pyrrolidin-1-ylpentanoyl)phenyl]acetamide

> <PUBCHEM_IUPAC_NAME>
N-[4-(2-pyrrolidin-1-ylpentanoyl)phenyl]acetamide

> <PUBCHEM_IUPAC_SYSTEMATIC_NAME>
N-[4-(2-pyrrolidin-1-ylpentanoyl)phenyl]ethanamide

> <PUBCHEM_IUPAC_TRADITIONAL_NAME>
N-[4-(2-pyrrolidinopentanoyl)phenyl]acetamide

> <PUBCHEM_IUPAC_INCHI>
InChI=1S/C17H24N2O2/c1-3-6-16(19-11-4-5-12-19)17(21)14-7-9-15(10-8-14)18-13(2)20/h7-10,16H,3-6,11-12H2,1-2H3,(H,18,20)

> <PUBCHEM_IUPAC_INCHIKEY>
DSIUMNNVBQZCEG-UHFFFAOYSA-N

> <PUBCHEM_XLOGP3_AA>
2.6

> <PUBCHEM_EXACT_MASS>
288.183778013

> <PUBCHEM_MOLECULAR_FORMULA>
C17H24N2O2

> <PUBCHEM_MOLECULAR_WEIGHT>
288.4

> <PUBCHEM_OPENEYE_CAN_SMILES>
CCCC(C(=O)C1=CC=C(C=C1)NC(=O)C)N2CCCC2

> <PUBCHEM_OPENEYE_ISO_SMILES>
CCCC(C(=O)C1=CC=C(C=C1)NC(=O)C)N2CCCC2

> <PUBCHEM_CACTVS_TPSA>
49.4

> <PUBCHEM_MONOISOTOPIC_WEIGHT>
288.183778013

> <PUBCHEM_TOTAL_CHARGE>
0

> <PUBCHEM_HEAVY_ATOM_COUNT>
21

> <PUBCHEM_ATOM_DEF_STEREO_COUNT>
0

> <PUBCHEM_ATOM_UDEF_STEREO_COUNT>
1

> <PUBCHEM_BOND_DEF_STEREO_COUNT>
0

> <PUBCHEM_BOND_UDEF_STEREO_COUNT>
0

> <PUBCHEM_ISOTOPIC_ATOM_COUNT>
0

> <PUBCHEM_COMPONENT_COUNT>
1

> <PUBCHEM_CACTVS_TAUTO_COUNT>
-1

> <PUBCHEM_COORDINATE_TYPE>
1
5
255

> <PUBCHEM_BONDANNOTATIONS>
13  15  8
13  16  8
15  17  8
16  18  8
17  19  8
18  19  8
5  10  3

$$$$
