11488247
  -OEChem-09292322292D

 59 62  0     1  0  0  0  0  0999 V2000
    7.8547   -5.2640    0.0000 Cl  0  0  0  0  0  0  0  0  0  0  0  0
    4.7884    2.4385    0.0000 S   0  0  0  0  0  0  0  0  0  0  0  0
    7.8547   -3.2156    0.0000 O   0  0  0  0  0  0  0  0  0  0  0  0
    3.8134    2.6610    0.0000 O   0  0  0  0  0  0  0  0  0  0  0  0
    5.7633    2.2160    0.0000 O   0  0  0  0  0  0  0  0  0  0  0  0
    3.0000   -4.2398    0.0000 N   0  0  3  0  0  0  0  0  0  0  0  0
    4.5658    1.4636    0.0000 N   0  0  3  0  0  0  0  0  0  0  0  0
    4.4088   -3.1163    0.0000 C   0  0  1  0  0  0  0  0  0  0  0  0
    3.4339   -3.3388    0.0000 C   0  0  0  0  0  0  0  0  0  0  0  0
    5.1906   -3.7398    0.0000 C   0  0  0  0  0  0  0  0  0  0  0  0
    3.4339   -5.1408    0.0000 C   0  0  0  0  0  0  0  0  0  0  0  0
    4.4088   -5.3633    0.0000 C   0  0  0  0  0  0  0  0  0  0  0  0
    5.1906   -4.7398    0.0000 C   0  0  0  0  0  0  0  0  0  0  0  0
    4.6313   -2.1414    0.0000 C   0  0  0  0  0  0  0  0  0  0  0  0
    6.0846   -3.2051    0.0000 C   0  0  0  0  0  0  0  0  0  0  0  0
    2.0000   -4.2398    0.0000 C   0  0  0  0  0  0  0  0  0  0  0  0
    6.0846   -5.2745    0.0000 C   0  0  0  0  0  0  0  0  0  0  0  0
    3.8983   -1.4612    0.0000 C   0  0  0  0  0  0  0  0  0  0  0  0
    5.5869   -1.8466    0.0000 C   0  0  0  0  0  0  0  0  0  0  0  0
    6.9906   -3.7190    0.0000 C   0  0  0  0  0  0  0  0  0  0  0  0
    5.0764   -0.1915    0.0000 C   0  0  0  0  0  0  0  0  0  0  0  0
    6.9906   -4.7606    0.0000 C   0  0  0  0  0  0  0  0  0  0  0  0
    4.1208   -0.4863    0.0000 C   0  0  0  0  0  0  0  0  0  0  0  0
    5.8094   -0.8717    0.0000 C   0  0  0  0  0  0  0  0  0  0  0  0
    5.2989    0.7834    0.0000 C   0  0  0  0  0  0  0  0  0  0  0  0
    3.6103    1.1688    0.0000 C   0  0  0  0  0  0  0  0  0  0  0  0
    5.0109    3.4134    0.0000 C   0  0  0  0  0  0  0  0  0  0  0  0
    4.2778    4.0936    0.0000 C   0  0  0  0  0  0  0  0  0  0  0  0
    5.9665    3.7082    0.0000 C   0  0  0  0  0  0  0  0  0  0  0  0
    4.5004    5.0685    0.0000 C   0  0  0  0  0  0  0  0  0  0  0  0
    6.1890    4.6831    0.0000 C   0  0  0  0  0  0  0  0  0  0  0  0
    5.4559    5.3633    0.0000 C   0  0  0  0  0  0  0  0  0  0  0  0
    3.9704   -2.6779    0.0000 H   0  0  0  0  0  0  0  0  0  0  0  0
    3.4339   -2.7188    0.0000 H   0  0  0  0  0  0  0  0  0  0  0  0
    2.8294   -3.2009    0.0000 H   0  0  0  0  0  0  0  0  0  0  0  0
    2.8294   -5.2787    0.0000 H   0  0  0  0  0  0  0  0  0  0  0  0
    3.4339   -5.7608    0.0000 H   0  0  0  0  0  0  0  0  0  0  0  0
    4.1398   -5.9219    0.0000 H   0  0  0  0  0  0  0  0  0  0  0  0
    4.8936   -5.7498    0.0000 H   0  0  0  0  0  0  0  0  0  0  0  0
    6.0774   -2.5852    0.0000 H   0  0  0  0  0  0  0  0  0  0  0  0
    2.0000   -3.6198    0.0000 H   0  0  0  0  0  0  0  0  0  0  0  0
    1.3800   -4.2398    0.0000 H   0  0  0  0  0  0  0  0  0  0  0  0
    2.0000   -4.8598    0.0000 H   0  0  0  0  0  0  0  0  0  0  0  0
    6.0774   -5.8944    0.0000 H   0  0  0  0  0  0  0  0  0  0  0  0
    3.3058   -1.6440    0.0000 H   0  0  0  0  0  0  0  0  0  0  0  0
    6.0414   -2.2683    0.0000 H   0  0  0  0  0  0  0  0  0  0  0  0
    3.6663   -0.0646    0.0000 H   0  0  0  0  0  0  0  0  0  0  0  0
    6.4019   -0.6889    0.0000 H   0  0  0  0  0  0  0  0  0  0  0  0
    5.8702    0.5426    0.0000 H   0  0  0  0  0  0  0  0  0  0  0  0
    5.6353    1.3042    0.0000 H   0  0  0  0  0  0  0  0  0  0  0  0
    3.4275    1.7613    0.0000 H   0  0  0  0  0  0  0  0  0  0  0  0
    3.0178    0.9861    0.0000 H   0  0  0  0  0  0  0  0  0  0  0  0
    3.7930    0.5764    0.0000 H   0  0  0  0  0  0  0  0  0  0  0  0
    8.3929   -3.5236    0.0000 H   0  0  0  0  0  0  0  0  0  0  0  0
    3.6854    3.9109    0.0000 H   0  0  0  0  0  0  0  0  0  0  0  0
    6.4210    3.2865    0.0000 H   0  0  0  0  0  0  0  0  0  0  0  0
    4.0459    5.4902    0.0000 H   0  0  0  0  0  0  0  0  0  0  0  0
    6.7814    4.8659    0.0000 H   0  0  0  0  0  0  0  0  0  0  0  0
    5.5939    5.9677    0.0000 H   0  0  0  0  0  0  0  0  0  0  0  0
  1 22  1  0  0  0  0
  2  4  2  0  0  0  0
  2  5  2  0  0  0  0
  2  7  1  0  0  0  0
  2 27  1  0  0  0  0
  3 20  1  0  0  0  0
  3 54  1  0  0  0  0
  6  9  1  0  0  0  0
  6 11  1  0  0  0  0
  6 16  1  0  0  0  0
  7 25  1  0  0  0  0
  7 26  1  0  0  0  0
  8  9  1  0  0  0  0
  8 10  1  0  0  0  0
  8 14  1  6  0  0  0
  8 33  1  0  0  0  0
  9 34  1  0  0  0  0
  9 35  1  0  0  0  0
 10 13  1  0  0  0  0
 10 15  2  0  0  0  0
 11 12  1  0  0  0  0
 11 36  1  0  0  0  0
 11 37  1  0  0  0  0
 12 13  1  0  0  0  0
 12 38  1  0  0  0  0
 12 39  1  0  0  0  0
 13 17  2  0  0  0  0
 14 18  2  0  0  0  0
 14 19  1  0  0  0  0
 15 20  1  0  0  0  0
 15 40  1  0  0  0  0
 16 41  1  0  0  0  0
 16 42  1  0  0  0  0
 16 43  1  0  0  0  0
 17 22  1  0  0  0  0
 17 44  1  0  0  0  0
 18 23  1  0  0  0  0
 18 45  1  0  0  0  0
 19 24  2  0  0  0  0
 19 46  1  0  0  0  0
 20 22  2  0  0  0  0
 21 23  2  0  0  0  0
 21 24  1  0  0  0  0
 21 25  1  0  0  0  0
 23 47  1  0  0  0  0
 24 48  1  0  0  0  0
 25 49  1  0  0  0  0
 25 50  1  0  0  0  0
 26 51  1  0  0  0  0
 26 52  1  0  0  0  0
 26 53  1  0  0  0  0
 27 28  2  0  0  0  0
 27 29  1  0  0  0  0
 28 30  1  0  0  0  0
 28 55  1  0  0  0  0
 29 31  2  0  0  0  0
 29 56  1  0  0  0  0
 30 32  2  0  0  0  0
 30 57  1  0  0  0  0
 31 32  1  0  0  0  0
 31 58  1  0  0  0  0
 32 59  1  0  0  0  0
M  END
> <PUBCHEM_COMPOUND_CID>
11488247

> <PUBCHEM_COMPOUND_CANONICALIZED>
1

> <PUBCHEM_CACTVS_COMPLEXITY>
701

> <PUBCHEM_CACTVS_HBOND_ACCEPTOR>
5

> <PUBCHEM_CACTVS_HBOND_DONOR>
1

> <PUBCHEM_CACTVS_ROTATABLE_BOND>
5

> <PUBCHEM_CACTVS_SUBSKEYS>
AAADceB7MABEAAAAAAAAAAAAAAAAAAAAAAAwYMAABYAAAAABUAAAHgYASAAADQbB2CQyB4MAAgKAAiBCAHDCABAgJUAIiBgOD4gIJiKDkxOEcAhkwBGImAeQ0PIO5AABIAAQCADIAAJAACAQAAAAAAAAAA==

> <PUBCHEM_IUPAC_OPENEYE_NAME>
N-[[4-[(5R)-8-chloro-7-hydroxy-3-methyl-1,2,4,5-tetrahydro-3-benzazepin-5-yl]phenyl]methyl]-N-methyl-benzenesulfonamide

> <PUBCHEM_IUPAC_CAS_NAME>
N-[[4-[(5R)-8-chloro-7-hydroxy-3-methyl-1,2,4,5-tetrahydro-3-benzazepin-5-yl]phenyl]methyl]-N-methylbenzenesulfonamide

> <PUBCHEM_IUPAC_NAME_MARKUP>
<I>N</I>-[[4-[(5<I>R</I>)-8-chloro-7-hydroxy-3-methyl-1,2,4,5-tetrahydro-3-benzazepin-5-yl]phenyl]methyl]-<I>N</I>-methylbenzenesulfonamide

> <PUBCHEM_IUPAC_NAME>
N-[[4-[(5R)-8-chloro-7-hydroxy-3-methyl-1,2,4,5-tetrahydro-3-benzazepin-5-yl]phenyl]methyl]-N-methylbenzenesulfonamide

> <PUBCHEM_IUPAC_SYSTEMATIC_NAME>
N-[[4-[(5R)-8-chloranyl-3-methyl-7-oxidanyl-1,2,4,5-tetrahydro-3-benzazepin-5-yl]phenyl]methyl]-N-methyl-benzenesulfonamide

> <PUBCHEM_IUPAC_TRADITIONAL_NAME>
N-[4-[(5R)-8-chloro-7-hydroxy-3-methyl-1,2,4,5-tetrahydro-3-benzazepin-5-yl]benzyl]-N-methyl-benzenesulfonamide

> <PUBCHEM_IUPAC_INCHI>
InChI=1S/C25H27ClN2O3S/c1-27-13-12-20-14-24(26)25(29)15-22(20)23(17-27)19-10-8-18(9-11-19)16-28(2)32(30,31)21-6-4-3-5-7-21/h3-11,14-15,23,29H,12-13,16-17H2,1-2H3/t23-/m1/s1

> <PUBCHEM_IUPAC_INCHIKEY>
FDYARYSVVYXICE-HSZRJFAPSA-N

> <PUBCHEM_XLOGP3_AA>
4.6

> <PUBCHEM_EXACT_MASS>
470.1430916

> <PUBCHEM_MOLECULAR_FORMULA>
C25H27ClN2O3S

> <PUBCHEM_MOLECULAR_WEIGHT>
471.0

> <PUBCHEM_OPENEYE_CAN_SMILES>
CN1CCC2=CC(=C(C=C2C(C1)C3=CC=C(C=C3)CN(C)S(=O)(=O)C4=CC=CC=C4)O)Cl

> <PUBCHEM_OPENEYE_ISO_SMILES>
CN1CCC2=CC(=C(C=C2[C@H](C1)C3=CC=C(C=C3)CN(C)S(=O)(=O)C4=CC=CC=C4)O)Cl

> <PUBCHEM_CACTVS_TPSA>
69.2

> <PUBCHEM_MONOISOTOPIC_WEIGHT>
470.1430916

> <PUBCHEM_TOTAL_CHARGE>
0

> <PUBCHEM_HEAVY_ATOM_COUNT>
32

> <PUBCHEM_ATOM_DEF_STEREO_COUNT>
1

> <PUBCHEM_ATOM_UDEF_STEREO_COUNT>
0

> <PUBCHEM_BOND_DEF_STEREO_COUNT>
0

> <PUBCHEM_BOND_UDEF_STEREO_COUNT>
0

> <PUBCHEM_ISOTOPIC_ATOM_COUNT>
0

> <PUBCHEM_COMPONENT_COUNT>
1

> <PUBCHEM_CACTVS_TAUTO_COUNT>
-1

> <PUBCHEM_COORDINATE_TYPE>
1
5
255

> <PUBCHEM_BONDANNOTATIONS>
10  13  8
10  15  8
13  17  8
14  18  8
14  19  8
15  20  8
17  22  8
18  23  8
19  24  8
20  22  8
21  23  8
21  24  8
27  28  8
27  29  8
28  30  8
29  31  8
30  32  8
31  32  8
8  14  6

$$$$
