162659494
  -OEChem-09292322422D

 56 60  0     1  0  0  0  0  0999 V2000
   11.4290   -1.0785    0.0000 S   0  0  0  0  0  0  0  0  0  0  0  0
   10.9290   -0.2124    0.0000 O   0  0  0  0  0  0  0  0  0  0  0  0
   11.9290   -1.9445    0.0000 O   0  0  0  0  0  0  0  0  0  0  0  0
    4.4550    2.1985    0.0000 O   0  0  0  0  0  0  0  0  0  0  0  0
    8.1143   -0.7421    0.0000 N   0  0  3  0  0  0  0  0  0  0  0  0
   10.5630   -1.5785    0.0000 N   0  0  0  0  0  0  0  0  0  0  0  0
    5.2577    1.6121    0.0000 N   0  0  0  0  0  0  0  0  0  0  0  0
    9.6969   -1.0785    0.0000 C   0  0  2  0  0  0  0  0  0  0  0  0
    8.7834   -1.4852    0.0000 C   0  0  0  0  0  0  0  0  0  0  0  0
    9.5924   -0.0839    0.0000 C   0  0  0  0  0  0  0  0  0  0  0  0
    8.6143    0.1240    0.0000 C   0  0  0  0  0  0  0  0  0  0  0  0
    7.1197   -0.8466    0.0000 C   0  0  0  0  0  0  0  0  0  0  0  0
    6.5320   -0.0376    0.0000 C   0  0  0  0  0  0  0  0  0  0  0  0
    5.5374   -0.1421    0.0000 C   0  0  0  0  0  0  0  0  0  0  0  0
   12.2950   -0.5785    0.0000 C   0  0  0  0  0  0  0  0  0  0  0  0
    4.9496    0.6669    0.0000 C   0  0  0  0  0  0  0  0  0  0  0  0
   13.1610   -1.0785    0.0000 C   0  0  0  0  0  0  0  0  0  0  0  0
   12.2950    0.4215    0.0000 C   0  0  0  0  0  0  0  0  0  0  0  0
    3.9556    0.6661    0.0000 C   0  0  0  0  0  0  0  0  0  0  0  0
   14.0271   -0.5785    0.0000 C   0  0  0  0  0  0  0  0  0  0  0  0
   14.0271    0.4215    0.0000 C   0  0  0  0  0  0  0  0  0  0  0  0
   13.1610    0.9215    0.0000 C   0  0  0  0  0  0  0  0  0  0  0  0
    3.6482    1.6176    0.0000 C   0  0  0  0  0  0  0  0  0  0  0  0
    3.2852   -0.0759    0.0000 C   0  0  0  0  0  0  0  0  0  0  0  0
   14.9210   -1.1131    0.0000 C   0  0  0  0  0  0  0  0  0  0  0  0
   14.9210    0.9562    0.0000 C   0  0  0  0  0  0  0  0  0  0  0  0
    2.6704    1.8272    0.0000 C   0  0  0  0  0  0  0  0  0  0  0  0
    2.3074    0.1337    0.0000 C   0  0  0  0  0  0  0  0  0  0  0  0
   15.8271   -0.5993    0.0000 C   0  0  0  0  0  0  0  0  0  0  0  0
    2.0000    1.0853    0.0000 C   0  0  0  0  0  0  0  0  0  0  0  0
   15.8271    0.4423    0.0000 C   0  0  0  0  0  0  0  0  0  0  0  0
   10.2169   -0.7408    0.0000 H   0  0  0  0  0  0  0  0  0  0  0  0
    8.2818   -1.8496    0.0000 H   0  0  0  0  0  0  0  0  0  0  0  0
    9.0934   -2.0221    0.0000 H   0  0  0  0  0  0  0  0  0  0  0  0
   10.2124   -0.0839    0.0000 H   0  0  0  0  0  0  0  0  0  0  0  0
    9.6572    0.5327    0.0000 H   0  0  0  0  0  0  0  0  0  0  0  0
    8.8059    0.7136    0.0000 H   0  0  0  0  0  0  0  0  0  0  0  0
    8.0479    0.3761    0.0000 H   0  0  0  0  0  0  0  0  0  0  0  0
    6.5625   -1.1184    0.0000 H   0  0  0  0  0  0  0  0  0  0  0  0
    7.2906   -1.4426    0.0000 H   0  0  0  0  0  0  0  0  0  0  0  0
   10.5630   -2.1985    0.0000 H   0  0  0  0  0  0  0  0  0  0  0  0
    7.0892    0.2342    0.0000 H   0  0  0  0  0  0  0  0  0  0  0  0
    6.3611    0.5584    0.0000 H   0  0  0  0  0  0  0  0  0  0  0  0
    4.9802   -0.4139    0.0000 H   0  0  0  0  0  0  0  0  0  0  0  0
    5.7083   -0.7381    0.0000 H   0  0  0  0  0  0  0  0  0  0  0  0
   13.1610   -1.6985    0.0000 H   0  0  0  0  0  0  0  0  0  0  0  0
   11.7581    0.7315    0.0000 H   0  0  0  0  0  0  0  0  0  0  0  0
   13.1610    1.5415    0.0000 H   0  0  0  0  0  0  0  0  0  0  0  0
    3.4757   -0.6659    0.0000 H   0  0  0  0  0  0  0  0  0  0  0  0
   14.9138   -1.7331    0.0000 H   0  0  0  0  0  0  0  0  0  0  0  0
   14.9138    1.5762    0.0000 H   0  0  0  0  0  0  0  0  0  0  0  0
    2.4798    2.4172    0.0000 H   0  0  0  0  0  0  0  0  0  0  0  0
    1.8917   -0.3264    0.0000 H   0  0  0  0  0  0  0  0  0  0  0  0
   16.3628   -0.9114    0.0000 H   0  0  0  0  0  0  0  0  0  0  0  0
    1.3938    1.2152    0.0000 H   0  0  0  0  0  0  0  0  0  0  0  0
   16.3628    0.7544    0.0000 H   0  0  0  0  0  0  0  0  0  0  0  0
  1  2  2  0  0  0  0
  1  3  2  0  0  0  0
  1  6  1  0  0  0  0
  1 15  1  0  0  0  0
  4  7  1  0  0  0  0
  4 23  1  0  0  0  0
  5  9  1  0  0  0  0
  5 11  1  0  0  0  0
  5 12  1  0  0  0  0
  8  6  1  6  0  0  0
  6 41  1  0  0  0  0
  7 16  2  0  0  0  0
  8  9  1  0  0  0  0
  8 10  1  0  0  0  0
  8 32  1  0  0  0  0
  9 33  1  0  0  0  0
  9 34  1  0  0  0  0
 10 11  1  0  0  0  0
 10 35  1  0  0  0  0
 10 36  1  0  0  0  0
 11 37  1  0  0  0  0
 11 38  1  0  0  0  0
 12 13  1  0  0  0  0
 12 39  1  0  0  0  0
 12 40  1  0  0  0  0
 13 14  1  0  0  0  0
 13 42  1  0  0  0  0
 13 43  1  0  0  0  0
 14 16  1  0  0  0  0
 14 44  1  0  0  0  0
 14 45  1  0  0  0  0
 15 17  2  0  0  0  0
 15 18  1  0  0  0  0
 16 19  1  0  0  0  0
 17 20  1  0  0  0  0
 17 46  1  0  0  0  0
 18 22  2  0  0  0  0
 18 47  1  0  0  0  0
 19 23  1  0  0  0  0
 19 24  2  0  0  0  0
 20 21  1  0  0  0  0
 20 25  2  0  0  0  0
 21 22  1  0  0  0  0
 21 26  2  0  0  0  0
 22 48  1  0  0  0  0
 23 27  2  0  0  0  0
 24 28  1  0  0  0  0
 24 49  1  0  0  0  0
 25 29  1  0  0  0  0
 25 50  1  0  0  0  0
 26 31  1  0  0  0  0
 26 51  1  0  0  0  0
 27 30  1  0  0  0  0
 27 52  1  0  0  0  0
 28 30  2  0  0  0  0
 28 53  1  0  0  0  0
 29 31  2  0  0  0  0
 29 54  1  0  0  0  0
 30 55  1  0  0  0  0
 31 56  1  0  0  0  0
M  END
> <PUBCHEM_COMPOUND_CID>
162659494

> <PUBCHEM_COMPOUND_CANONICALIZED>
1

> <PUBCHEM_CACTVS_COMPLEXITY>
697

> <PUBCHEM_CACTVS_HBOND_ACCEPTOR>
6

> <PUBCHEM_CACTVS_HBOND_DONOR>
1

> <PUBCHEM_CACTVS_ROTATABLE_BOND>
7

> <PUBCHEM_CACTVS_SUBSKEYS>
AAADceB7MABAAAAAAAAAAAAAAAAAAWLAAAAwYMAAAAAAAFjB9AAAHgQUQAAADCzB3gQwh9NQAAKpA6RyQnDCABAkIAAomLk+TNoIZrqA1ZOUMYBm0BmIyceYyKCOkAAAgAAYAAAgAAEAADAAAAAAAAAAAA==

> <PUBCHEM_IUPAC_OPENEYE_NAME>
N-[(3S)-1-[3-(1,2-benzoxazol-3-yl)propyl]pyrrolidin-3-yl]naphthalene-2-sulfonamide

> <PUBCHEM_IUPAC_CAS_NAME>
N-[(3S)-1-[3-(1,2-benzoxazol-3-yl)propyl]-3-pyrrolidinyl]-2-naphthalenesulfonamide

> <PUBCHEM_IUPAC_NAME_MARKUP>
<I>N</I>-[(3<I>S</I>)-1-[3-(1,2-benzoxazol-3-yl)propyl]pyrrolidin-3-yl]naphthalene-2-sulfonamide

> <PUBCHEM_IUPAC_NAME>
N-[(3S)-1-[3-(1,2-benzoxazol-3-yl)propyl]pyrrolidin-3-yl]naphthalene-2-sulfonamide

> <PUBCHEM_IUPAC_SYSTEMATIC_NAME>
N-[(3S)-1-[3-(1,2-benzoxazol-3-yl)propyl]pyrrolidin-3-yl]naphthalene-2-sulfonamide

> <PUBCHEM_IUPAC_TRADITIONAL_NAME>
N-[(3S)-1-(3-indoxazen-3-ylpropyl)pyrrolidin-3-yl]naphthalene-2-sulfonamide

> <PUBCHEM_IUPAC_INCHI>
InChI=1S/C24H25N3O3S/c28-31(29,21-12-11-18-6-1-2-7-19(18)16-21)26-20-13-15-27(17-20)14-5-9-23-22-8-3-4-10-24(22)30-25-23/h1-4,6-8,10-12,16,20,26H,5,9,13-15,17H2/t20-/m0/s1

> <PUBCHEM_IUPAC_INCHIKEY>
QGVGRVIBOJVENZ-FQEVSTJZSA-N

> <PUBCHEM_XLOGP3_AA>
4.5

> <PUBCHEM_EXACT_MASS>
435.16166284

> <PUBCHEM_MOLECULAR_FORMULA>
C24H25N3O3S

> <PUBCHEM_MOLECULAR_WEIGHT>
435.5

> <PUBCHEM_OPENEYE_CAN_SMILES>
C1CN(CC1NS(=O)(=O)C2=CC3=CC=CC=C3C=C2)CCCC4=NOC5=CC=CC=C54

> <PUBCHEM_OPENEYE_ISO_SMILES>
C1CN(C[C@H]1NS(=O)(=O)C2=CC3=CC=CC=C3C=C2)CCCC4=NOC5=CC=CC=C54

> <PUBCHEM_CACTVS_TPSA>
83.8

> <PUBCHEM_MONOISOTOPIC_WEIGHT>
435.16166284

> <PUBCHEM_TOTAL_CHARGE>
0

> <PUBCHEM_HEAVY_ATOM_COUNT>
31

> <PUBCHEM_ATOM_DEF_STEREO_COUNT>
1

> <PUBCHEM_ATOM_UDEF_STEREO_COUNT>
0

> <PUBCHEM_BOND_DEF_STEREO_COUNT>
0

> <PUBCHEM_BOND_UDEF_STEREO_COUNT>
0

> <PUBCHEM_ISOTOPIC_ATOM_COUNT>
0

> <PUBCHEM_COMPONENT_COUNT>
1

> <PUBCHEM_CACTVS_TAUTO_COUNT>
-1

> <PUBCHEM_COORDINATE_TYPE>
1
5
255

> <PUBCHEM_BONDANNOTATIONS>
15  17  8
15  18  8
16  19  8
17  20  8
18  22  8
19  23  8
19  24  8
20  21  8
20  25  8
21  22  8
21  26  8
23  27  8
24  28  8
25  29  8
26  31  8
27  30  8
28  30  8
29  31  8
4  23  8
4  7  8
8  6  6
7  16  8

$$$$
