71458648
  -OEChem-09292322332D

 52 54  0     0  0  0  0  0  0999 V2000
    3.0000   -2.5000    0.0000 S   0  0  0  0  0  0  0  0  0  0  0  0
    3.0000   -6.5000    0.0000 F   0  0  0  0  0  0  0  0  0  0  0  0
    8.1962    4.5000    0.0000 F   0  0  0  0  0  0  0  0  0  0  0  0
    4.7320    4.5000    0.0000 O   0  0  0  0  0  0  0  0  0  0  0  0
    4.0000   -2.5000    0.0000 O   0  0  0  0  0  0  0  0  0  0  0  0
    2.0000   -2.5000    0.0000 O   0  0  0  0  0  0  0  0  0  0  0  0
    3.8660    2.0000    0.0000 N   0  0  0  0  0  0  0  0  0  0  0  0
    3.0000   -1.5000    0.0000 N   0  0  0  0  0  0  0  0  0  0  0  0
    3.8660   -0.0000    0.0000 C   0  0  0  0  0  0  0  0  0  0  0  0
    4.7320    0.5000    0.0000 C   0  0  0  0  0  0  0  0  0  0  0  0
    3.0000    0.5000    0.0000 C   0  0  0  0  0  0  0  0  0  0  0  0
    4.7320    1.5000    0.0000 C   0  0  0  0  0  0  0  0  0  0  0  0
    3.0000    1.5000    0.0000 C   0  0  0  0  0  0  0  0  0  0  0  0
    3.8660   -1.0000    0.0000 C   0  0  0  0  0  0  0  0  0  0  0  0
    3.8660    3.0000    0.0000 C   0  0  0  0  0  0  0  0  0  0  0  0
    4.7320    3.5000    0.0000 C   0  0  0  0  0  0  0  0  0  0  0  0
    3.0000   -3.5000    0.0000 C   0  0  0  0  0  0  0  0  0  0  0  0
    2.1340   -4.0000    0.0000 C   0  0  0  0  0  0  0  0  0  0  0  0
    3.8660   -4.0000    0.0000 C   0  0  0  0  0  0  0  0  0  0  0  0
    5.5981    5.0000    0.0000 C   0  0  0  0  0  0  0  0  0  0  0  0
    2.1340   -5.0000    0.0000 C   0  0  0  0  0  0  0  0  0  0  0  0
    3.8660   -5.0000    0.0000 C   0  0  0  0  0  0  0  0  0  0  0  0
    6.4641    4.5000    0.0000 C   0  0  0  0  0  0  0  0  0  0  0  0
    5.5981    6.0000    0.0000 C   0  0  0  0  0  0  0  0  0  0  0  0
    3.0000   -5.5000    0.0000 C   0  0  0  0  0  0  0  0  0  0  0  0
    7.3301    5.0000    0.0000 C   0  0  0  0  0  0  0  0  0  0  0  0
    6.4641    6.5000    0.0000 C   0  0  0  0  0  0  0  0  0  0  0  0
    7.3301    6.0000    0.0000 C   0  0  0  0  0  0  0  0  0  0  0  0
    4.4030   -0.3100    0.0000 H   0  0  0  0  0  0  0  0  0  0  0  0
    4.9441   -0.0826    0.0000 H   0  0  0  0  0  0  0  0  0  0  0  0
    5.3426    0.6077    0.0000 H   0  0  0  0  0  0  0  0  0  0  0  0
    2.3894    0.6077    0.0000 H   0  0  0  0  0  0  0  0  0  0  0  0
    2.7880   -0.0826    0.0000 H   0  0  0  0  0  0  0  0  0  0  0  0
    5.3426    1.3923    0.0000 H   0  0  0  0  0  0  0  0  0  0  0  0
    4.9441    2.0826    0.0000 H   0  0  0  0  0  0  0  0  0  0  0  0
    2.7880    2.0826    0.0000 H   0  0  0  0  0  0  0  0  0  0  0  0
    2.3894    1.3923    0.0000 H   0  0  0  0  0  0  0  0  0  0  0  0
    4.0781   -1.5826    0.0000 H   0  0  0  0  0  0  0  0  0  0  0  0
    4.4766   -0.8923    0.0000 H   0  0  0  0  0  0  0  0  0  0  0  0
    3.6540    3.5826    0.0000 H   0  0  0  0  0  0  0  0  0  0  0  0
    3.2554    2.8923    0.0000 H   0  0  0  0  0  0  0  0  0  0  0  0
    2.4631   -1.1900    0.0000 H   0  0  0  0  0  0  0  0  0  0  0  0
    4.9441    2.9174    0.0000 H   0  0  0  0  0  0  0  0  0  0  0  0
    5.3426    3.6077    0.0000 H   0  0  0  0  0  0  0  0  0  0  0  0
    1.5970   -3.6900    0.0000 H   0  0  0  0  0  0  0  0  0  0  0  0
    4.4030   -3.6900    0.0000 H   0  0  0  0  0  0  0  0  0  0  0  0
    1.5970   -5.3100    0.0000 H   0  0  0  0  0  0  0  0  0  0  0  0
    4.4030   -5.3100    0.0000 H   0  0  0  0  0  0  0  0  0  0  0  0
    6.4641    3.8800    0.0000 H   0  0  0  0  0  0  0  0  0  0  0  0
    5.0611    6.3100    0.0000 H   0  0  0  0  0  0  0  0  0  0  0  0
    6.4641    7.1200    0.0000 H   0  0  0  0  0  0  0  0  0  0  0  0
    7.8671    6.3100    0.0000 H   0  0  0  0  0  0  0  0  0  0  0  0
  1  5  2  0  0  0  0
  1  6  2  0  0  0  0
  1  8  1  0  0  0  0
  1 17  1  0  0  0  0
  2 25  1  0  0  0  0
  3 26  1  0  0  0  0
  4 16  1  0  0  0  0
  4 20  1  0  0  0  0
  7 12  1  0  0  0  0
  7 13  1  0  0  0  0
  7 15  1  0  0  0  0
  8 14  1  0  0  0  0
  8 42  1  0  0  0  0
  9 10  1  0  0  0  0
  9 11  1  0  0  0  0
  9 14  1  0  0  0  0
  9 29  1  0  0  0  0
 10 12  1  0  0  0  0
 10 30  1  0  0  0  0
 10 31  1  0  0  0  0
 11 13  1  0  0  0  0
 11 32  1  0  0  0  0
 11 33  1  0  0  0  0
 12 34  1  0  0  0  0
 12 35  1  0  0  0  0
 13 36  1  0  0  0  0
 13 37  1  0  0  0  0
 14 38  1  0  0  0  0
 14 39  1  0  0  0  0
 15 16  1  0  0  0  0
 15 40  1  0  0  0  0
 15 41  1  0  0  0  0
 16 43  1  0  0  0  0
 16 44  1  0  0  0  0
 17 18  2  0  0  0  0
 17 19  1  0  0  0  0
 18 21  1  0  0  0  0
 18 45  1  0  0  0  0
 19 22  2  0  0  0  0
 19 46  1  0  0  0  0
 20 23  2  0  0  0  0
 20 24  1  0  0  0  0
 21 25  2  0  0  0  0
 21 47  1  0  0  0  0
 22 25  1  0  0  0  0
 22 48  1  0  0  0  0
 23 26  1  0  0  0  0
 23 49  1  0  0  0  0
 24 27  2  0  0  0  0
 24 50  1  0  0  0  0
 26 28  2  0  0  0  0
 27 28  1  0  0  0  0
 27 51  1  0  0  0  0
 28 52  1  0  0  0  0
M  END
> <PUBCHEM_COMPOUND_CID>
71458648

> <PUBCHEM_COMPOUND_CANONICALIZED>
1

> <PUBCHEM_CACTVS_COMPLEXITY>
556

> <PUBCHEM_CACTVS_HBOND_ACCEPTOR>
7

> <PUBCHEM_CACTVS_HBOND_DONOR>
1

> <PUBCHEM_CACTVS_ROTATABLE_BOND>
8

> <PUBCHEM_CACTVS_SUBSKEYS>
AAADceB7MYBAAAAAAAAAAAAAAAAAAAAAAAA8YIAAAAAAAAABQAAAHwQQQAAADQTh0A4wB4NABAKAACBCAHBCCBAgIAAIiJgOCIgOJiKEsRqHOCCk0BGYqAeQQAAKAAAAAAAAAAAAAAAAAAAAAAAAAAAAAA==

> <PUBCHEM_IUPAC_OPENEYE_NAME>
4-fluoro-N-[[1-[2-(3-fluorophenoxy)ethyl]-4-piperidyl]methyl]benzenesulfonamide

> <PUBCHEM_IUPAC_CAS_NAME>
4-fluoro-N-[[1-[2-(3-fluorophenoxy)ethyl]-4-piperidinyl]methyl]benzenesulfonamide

> <PUBCHEM_IUPAC_NAME_MARKUP>
4-fluoro-<I>N</I>-[[1-[2-(3-fluorophenoxy)ethyl]piperidin-4-yl]methyl]benzenesulfonamide

> <PUBCHEM_IUPAC_NAME>
4-fluoro-N-[[1-[2-(3-fluorophenoxy)ethyl]piperidin-4-yl]methyl]benzenesulfonamide

> <PUBCHEM_IUPAC_SYSTEMATIC_NAME>
4-fluoranyl-N-[[1-[2-(3-fluoranylphenoxy)ethyl]piperidin-4-yl]methyl]benzenesulfonamide

> <PUBCHEM_IUPAC_TRADITIONAL_NAME>
4-fluoro-N-[[1-[2-(3-fluorophenoxy)ethyl]-4-piperidyl]methyl]benzenesulfonamide

> <PUBCHEM_IUPAC_INCHI>
InChI=1S/C20H24F2N2O3S/c21-17-4-6-20(7-5-17)28(25,26)23-15-16-8-10-24(11-9-16)12-13-27-19-3-1-2-18(22)14-19/h1-7,14,16,23H,8-13,15H2

> <PUBCHEM_IUPAC_INCHIKEY>
NTXUZPFGBADASP-UHFFFAOYSA-N

> <PUBCHEM_XLOGP3_AA>
3.5

> <PUBCHEM_EXACT_MASS>
410.14757013

> <PUBCHEM_MOLECULAR_FORMULA>
C20H24F2N2O3S

> <PUBCHEM_MOLECULAR_WEIGHT>
410.5

> <PUBCHEM_OPENEYE_CAN_SMILES>
C1CN(CCC1CNS(=O)(=O)C2=CC=C(C=C2)F)CCOC3=CC(=CC=C3)F

> <PUBCHEM_OPENEYE_ISO_SMILES>
C1CN(CCC1CNS(=O)(=O)C2=CC=C(C=C2)F)CCOC3=CC(=CC=C3)F

> <PUBCHEM_CACTVS_TPSA>
67

> <PUBCHEM_MONOISOTOPIC_WEIGHT>
410.14757013

> <PUBCHEM_TOTAL_CHARGE>
0

> <PUBCHEM_HEAVY_ATOM_COUNT>
28

> <PUBCHEM_ATOM_DEF_STEREO_COUNT>
0

> <PUBCHEM_ATOM_UDEF_STEREO_COUNT>
0

> <PUBCHEM_BOND_DEF_STEREO_COUNT>
0

> <PUBCHEM_BOND_UDEF_STEREO_COUNT>
0

> <PUBCHEM_ISOTOPIC_ATOM_COUNT>
0

> <PUBCHEM_COMPONENT_COUNT>
1

> <PUBCHEM_CACTVS_TAUTO_COUNT>
-1

> <PUBCHEM_COORDINATE_TYPE>
1
5
255

> <PUBCHEM_BONDANNOTATIONS>
17  18  8
17  19  8
18  21  8
19  22  8
20  23  8
20  24  8
21  25  8
22  25  8
23  26  8
24  27  8
26  28  8
27  28  8

$$$$
