155561828
  -OEChem-09292322092D

 54 58  0     0  0  0  0  0  0999 V2000
    6.5443   -1.8047    0.0000 S   0  0  0  0  0  0  0  0  0  0  0  0
    3.0000    5.0000    0.0000 F   0  0  0  0  0  0  0  0  0  0  0  0
    2.0000    4.0000    0.0000 F   0  0  0  0  0  0  0  0  0  0  0  0
    4.0000    4.0000    0.0000 F   0  0  0  0  0  0  0  0  0  0  0  0
    3.0000   -5.0000    0.0000 O   0  0  0  0  0  0  0  0  0  0  0  0
    3.0000   -3.0000    0.0000 N   0  0  0  0  0  0  0  0  0  0  0  0
    3.8660   -0.5000    0.0000 N   0  0  0  0  0  0  0  0  0  0  0  0
    4.7320   -2.0000    0.0000 N   0  0  0  0  0  0  0  0  0  0  0  0
    4.7320    1.0000    0.0000 N   0  0  0  0  0  0  0  0  0  0  0  0
    3.8660   -3.5000    0.0000 C   0  0  0  0  0  0  0  0  0  0  0  0
    2.1340   -3.5000    0.0000 C   0  0  0  0  0  0  0  0  0  0  0  0
    3.0000   -2.0000    0.0000 C   0  0  0  0  0  0  0  0  0  0  0  0
    3.8660   -4.5000    0.0000 C   0  0  0  0  0  0  0  0  0  0  0  0
    2.1340   -4.5000    0.0000 C   0  0  0  0  0  0  0  0  0  0  0  0
    3.8660   -1.5000    0.0000 C   0  0  0  0  0  0  0  0  0  0  0  0
    5.5981   -0.5000    0.0000 C   0  0  0  0  0  0  0  0  0  0  0  0
    4.7320    0.0000    0.0000 C   0  0  0  0  0  0  0  0  0  0  0  0
    5.5981   -1.5000    0.0000 C   0  0  0  0  0  0  0  0  0  0  0  0
    6.5443   -0.1953    0.0000 C   0  0  0  0  0  0  0  0  0  0  0  0
    7.1279   -1.0000    0.0000 C   0  0  0  0  0  0  0  0  0  0  0  0
    8.1279   -1.0000    0.0000 C   0  0  0  0  0  0  0  0  0  0  0  0
    3.8660    1.5000    0.0000 C   0  0  0  0  0  0  0  0  0  0  0  0
    3.8660    2.5000    0.0000 C   0  0  0  0  0  0  0  0  0  0  0  0
    3.0000    1.0000    0.0000 C   0  0  0  0  0  0  0  0  0  0  0  0
    3.0000    3.0000    0.0000 C   0  0  0  0  0  0  0  0  0  0  0  0
    8.6279   -1.8660    0.0000 C   0  0  0  0  0  0  0  0  0  0  0  0
    8.6279   -0.1340    0.0000 C   0  0  0  0  0  0  0  0  0  0  0  0
    2.1340    1.5000    0.0000 C   0  0  0  0  0  0  0  0  0  0  0  0
    2.1340    2.5000    0.0000 C   0  0  0  0  0  0  0  0  0  0  0  0
    9.6279   -1.8660    0.0000 C   0  0  0  0  0  0  0  0  0  0  0  0
    9.6279   -0.1340    0.0000 C   0  0  0  0  0  0  0  0  0  0  0  0
    3.0000    4.0000    0.0000 C   0  0  0  0  0  0  0  0  0  0  0  0
   10.1279   -1.0000    0.0000 C   0  0  0  0  0  0  0  0  0  0  0  0
    4.4766   -3.6077    0.0000 H   0  0  0  0  0  0  0  0  0  0  0  0
    4.0781   -2.9174    0.0000 H   0  0  0  0  0  0  0  0  0  0  0  0
    1.9219   -2.9174    0.0000 H   0  0  0  0  0  0  0  0  0  0  0  0
    1.5234   -3.6077    0.0000 H   0  0  0  0  0  0  0  0  0  0  0  0
    2.7880   -1.4174    0.0000 H   0  0  0  0  0  0  0  0  0  0  0  0
    2.3894   -2.1077    0.0000 H   0  0  0  0  0  0  0  0  0  0  0  0
    4.0781   -5.0826    0.0000 H   0  0  0  0  0  0  0  0  0  0  0  0
    4.4766   -4.3923    0.0000 H   0  0  0  0  0  0  0  0  0  0  0  0
    1.5234   -4.3923    0.0000 H   0  0  0  0  0  0  0  0  0  0  0  0
    1.9219   -5.0826    0.0000 H   0  0  0  0  0  0  0  0  0  0  0  0
    6.7369    0.3941    0.0000 H   0  0  0  0  0  0  0  0  0  0  0  0
    5.2690    1.3100    0.0000 H   0  0  0  0  0  0  0  0  0  0  0  0
    4.4030    2.8100    0.0000 H   0  0  0  0  0  0  0  0  0  0  0  0
    3.0000    0.3800    0.0000 H   0  0  0  0  0  0  0  0  0  0  0  0
    8.3179   -2.4030    0.0000 H   0  0  0  0  0  0  0  0  0  0  0  0
    8.3179    0.4030    0.0000 H   0  0  0  0  0  0  0  0  0  0  0  0
    1.5970    1.1900    0.0000 H   0  0  0  0  0  0  0  0  0  0  0  0
    1.5970    2.8100    0.0000 H   0  0  0  0  0  0  0  0  0  0  0  0
    9.9379   -2.4030    0.0000 H   0  0  0  0  0  0  0  0  0  0  0  0
    9.9379    0.4030    0.0000 H   0  0  0  0  0  0  0  0  0  0  0  0
   10.7479   -1.0000    0.0000 H   0  0  0  0  0  0  0  0  0  0  0  0
  1 18  1  0  0  0  0
  1 20  1  0  0  0  0
  2 32  1  0  0  0  0
  3 32  1  0  0  0  0
  4 32  1  0  0  0  0
  5 13  1  0  0  0  0
  5 14  1  0  0  0  0
  6 10  1  0  0  0  0
  6 11  1  0  0  0  0
  6 12  1  0  0  0  0
  7 15  2  0  0  0  0
  7 17  1  0  0  0  0
  8 15  1  0  0  0  0
  8 18  2  0  0  0  0
  9 17  1  0  0  0  0
  9 22  1  0  0  0  0
  9 45  1  0  0  0  0
 10 13  1  0  0  0  0
 10 34  1  0  0  0  0
 10 35  1  0  0  0  0
 11 14  1  0  0  0  0
 11 36  1  0  0  0  0
 11 37  1  0  0  0  0
 12 15  1  0  0  0  0
 12 38  1  0  0  0  0
 12 39  1  0  0  0  0
 13 40  1  0  0  0  0
 13 41  1  0  0  0  0
 14 42  1  0  0  0  0
 14 43  1  0  0  0  0
 16 17  2  0  0  0  0
 16 18  1  0  0  0  0
 16 19  1  0  0  0  0
 19 20  2  0  0  0  0
 19 44  1  0  0  0  0
 20 21  1  0  0  0  0
 21 26  2  0  0  0  0
 21 27  1  0  0  0  0
 22 23  1  0  0  0  0
 22 24  2  0  0  0  0
 23 25  2  0  0  0  0
 23 46  1  0  0  0  0
 24 28  1  0  0  0  0
 24 47  1  0  0  0  0
 25 29  1  0  0  0  0
 25 32  1  0  0  0  0
 26 30  1  0  0  0  0
 26 48  1  0  0  0  0
 27 31  2  0  0  0  0
 27 49  1  0  0  0  0
 28 29  2  0  0  0  0
 28 50  1  0  0  0  0
 29 51  1  0  0  0  0
 30 33  2  0  0  0  0
 30 52  1  0  0  0  0
 31 33  1  0  0  0  0
 31 53  1  0  0  0  0
 33 54  1  0  0  0  0
M  END
> <PUBCHEM_COMPOUND_CID>
155561828

> <PUBCHEM_COMPOUND_CANONICALIZED>
1

> <PUBCHEM_CACTVS_COMPLEXITY>
629

> <PUBCHEM_CACTVS_HBOND_ACCEPTOR>
9

> <PUBCHEM_CACTVS_HBOND_DONOR>
1

> <PUBCHEM_CACTVS_ROTATABLE_BOND>
5

> <PUBCHEM_CACTVS_SUBSKEYS>
AAADceB7oYBAAAAAAAAAAAAAAAAAASAAAAA8eIEAAAAAAFgB/AAAHwQQAAAADAjh2xYx8dfIFAikAiZiZACD0KlhCrhJmDg4ZJiKaOLg2dGXJAxokAL4yCcQgMAOAAAAQAAAAAAAAACAAAAAAAAAAAAAAA==

> <PUBCHEM_IUPAC_OPENEYE_NAME>
2-(morpholinomethyl)-6-phenyl-N-[3-(trifluoromethyl)phenyl]thieno[2,3-d]pyrimidin-4-amine

> <PUBCHEM_IUPAC_CAS_NAME>
2-(4-morpholinylmethyl)-6-phenyl-N-[3-(trifluoromethyl)phenyl]-4-thieno[2,3-d]pyrimidinamine

> <PUBCHEM_IUPAC_NAME_MARKUP>
2-(morpholin-4-ylmethyl)-6-phenyl-<I>N</I>-[3-(trifluoromethyl)phenyl]thieno[2,3-d]pyrimidin-4-amine

> <PUBCHEM_IUPAC_NAME>
2-(morpholin-4-ylmethyl)-6-phenyl-N-[3-(trifluoromethyl)phenyl]thieno[2,3-d]pyrimidin-4-amine

> <PUBCHEM_IUPAC_SYSTEMATIC_NAME>
2-(morpholin-4-ylmethyl)-6-phenyl-N-[3-(trifluoromethyl)phenyl]thieno[2,3-d]pyrimidin-4-amine

> <PUBCHEM_IUPAC_TRADITIONAL_NAME>
[2-(morpholinomethyl)-6-phenyl-thieno[2,3-d]pyrimidin-4-yl]-[3-(trifluoromethyl)phenyl]amine

> <PUBCHEM_IUPAC_INCHI>
InChI=1S/C24H21F3N4OS/c25-24(26,27)17-7-4-8-18(13-17)28-22-19-14-20(16-5-2-1-3-6-16)33-23(19)30-21(29-22)15-31-9-11-32-12-10-31/h1-8,13-14H,9-12,15H2,(H,28,29,30)

> <PUBCHEM_IUPAC_INCHIKEY>
PVGKXABALFCBBW-UHFFFAOYSA-N

> <PUBCHEM_XLOGP3_AA>
5.5

> <PUBCHEM_EXACT_MASS>
470.13881697

> <PUBCHEM_MOLECULAR_FORMULA>
C24H21F3N4OS

> <PUBCHEM_MOLECULAR_WEIGHT>
470.5

> <PUBCHEM_OPENEYE_CAN_SMILES>
C1COCCN1CC2=NC(=C3C=C(SC3=N2)C4=CC=CC=C4)NC5=CC=CC(=C5)C(F)(F)F

> <PUBCHEM_OPENEYE_ISO_SMILES>
C1COCCN1CC2=NC(=C3C=C(SC3=N2)C4=CC=CC=C4)NC5=CC=CC(=C5)C(F)(F)F

> <PUBCHEM_CACTVS_TPSA>
78.5

> <PUBCHEM_MONOISOTOPIC_WEIGHT>
470.13881697

> <PUBCHEM_TOTAL_CHARGE>
0

> <PUBCHEM_HEAVY_ATOM_COUNT>
33

> <PUBCHEM_ATOM_DEF_STEREO_COUNT>
0

> <PUBCHEM_ATOM_UDEF_STEREO_COUNT>
0

> <PUBCHEM_BOND_DEF_STEREO_COUNT>
0

> <PUBCHEM_BOND_UDEF_STEREO_COUNT>
0

> <PUBCHEM_ISOTOPIC_ATOM_COUNT>
0

> <PUBCHEM_COMPONENT_COUNT>
1

> <PUBCHEM_CACTVS_TAUTO_COUNT>
-1

> <PUBCHEM_COORDINATE_TYPE>
1
5
255

> <PUBCHEM_BONDANNOTATIONS>
1  18  8
1  20  8
16  17  8
16  18  8
16  19  8
19  20  8
21  26  8
21  27  8
22  23  8
22  24  8
23  25  8
24  28  8
25  29  8
26  30  8
27  31  8
28  29  8
30  33  8
31  33  8
7  15  8
7  17  8
8  15  8
8  18  8

$$$$
