12050197
  -OEChem-09292322142D

 52 55  0     0  0  0  0  0  0999 V2000
    6.3301   -5.7668    0.0000 Br  0  0  0  0  0  0  0  0  0  0  0  0
    5.4071   -2.1790    0.0000 S   0  0  0  0  0  0  0  0  0  0  0  0
    2.8660   -3.7668    0.0000 O   0  0  0  0  0  0  0  0  0  0  0  0
    4.7305    2.3217    0.0000 N   0  0  0  0  0  0  0  0  0  0  0  0
    3.9170    0.4946    0.0000 N   0  0  0  0  0  0  0  0  0  0  0  0
    3.7891   -2.1790    0.0000 N   0  0  0  0  0  0  0  0  0  0  0  0
    5.3183    1.5127    0.0000 C   0  0  0  0  0  0  0  0  0  0  0  0
    3.7360    2.2172    0.0000 C   0  0  0  0  0  0  0  0  0  0  0  0
    4.9116    0.5991    0.0000 C   0  0  0  0  0  0  0  0  0  0  0  0
    3.3292    1.3036    0.0000 C   0  0  0  0  0  0  0  0  0  0  0  0
    5.1372    3.2352    0.0000 C   0  0  0  0  0  0  0  0  0  0  0  0
    3.5103   -0.4190    0.0000 C   0  0  0  0  0  0  0  0  0  0  0  0
    4.5494    4.0442    0.0000 C   0  0  0  0  0  0  0  0  0  0  0  0
    4.0981   -1.2280    0.0000 C   0  0  0  0  0  0  0  0  0  0  0  0
    3.5549    3.9397    0.0000 C   0  0  0  0  0  0  0  0  0  0  0  0
    4.9562    4.9578    0.0000 C   0  0  0  0  0  0  0  0  0  0  0  0
    5.0981   -1.2280    0.0000 C   0  0  0  0  0  0  0  0  0  0  0  0
    4.5981   -2.7668    0.0000 C   0  0  0  0  0  0  0  0  0  0  0  0
    2.9672    4.7487    0.0000 C   0  0  0  0  0  0  0  0  0  0  0  0
    4.3684    5.7668    0.0000 C   0  0  0  0  0  0  0  0  0  0  0  0
    4.5981   -3.7668    0.0000 C   0  0  0  0  0  0  0  0  0  0  0  0
    3.3739    5.6623    0.0000 C   0  0  0  0  0  0  0  0  0  0  0  0
    3.7320   -4.2668    0.0000 C   0  0  0  0  0  0  0  0  0  0  0  0
    5.4641   -4.2668    0.0000 C   0  0  0  0  0  0  0  0  0  0  0  0
    3.7320   -5.2668    0.0000 C   0  0  0  0  0  0  0  0  0  0  0  0
    5.4641   -5.2668    0.0000 C   0  0  0  0  0  0  0  0  0  0  0  0
    4.5981   -5.7668    0.0000 C   0  0  0  0  0  0  0  0  0  0  0  0
    2.0000   -4.2668    0.0000 C   0  0  0  0  0  0  0  0  0  0  0  0
    5.8323    1.1660    0.0000 H   0  0  0  0  0  0  0  0  0  0  0  0
    5.7490    1.9587    0.0000 H   0  0  0  0  0  0  0  0  0  0  0  0
    3.7792    2.8356    0.0000 H   0  0  0  0  0  0  0  0  0  0  0  0
    3.1344    2.3672    0.0000 H   0  0  0  0  0  0  0  0  0  0  0  0
    4.8683   -0.0194    0.0000 H   0  0  0  0  0  0  0  0  0  0  0  0
    5.5131    0.4491    0.0000 H   0  0  0  0  0  0  0  0  0  0  0  0
    2.8152    1.6503    0.0000 H   0  0  0  0  0  0  0  0  0  0  0  0
    2.8986    0.8576    0.0000 H   0  0  0  0  0  0  0  0  0  0  0  0
    5.6512    2.8885    0.0000 H   0  0  0  0  0  0  0  0  0  0  0  0
    5.5679    3.6812    0.0000 H   0  0  0  0  0  0  0  0  0  0  0  0
    2.9963   -0.0723    0.0000 H   0  0  0  0  0  0  0  0  0  0  0  0
    3.0796   -0.8649    0.0000 H   0  0  0  0  0  0  0  0  0  0  0  0
    3.3028    3.3733    0.0000 H   0  0  0  0  0  0  0  0  0  0  0  0
    5.5728    5.0226    0.0000 H   0  0  0  0  0  0  0  0  0  0  0  0
    5.4625   -0.7264    0.0000 H   0  0  0  0  0  0  0  0  0  0  0  0
    2.3505    4.6839    0.0000 H   0  0  0  0  0  0  0  0  0  0  0  0
    4.6206    6.3332    0.0000 H   0  0  0  0  0  0  0  0  0  0  0  0
    3.0094    6.1639    0.0000 H   0  0  0  0  0  0  0  0  0  0  0  0
    6.0010   -3.9568    0.0000 H   0  0  0  0  0  0  0  0  0  0  0  0
    3.1951   -5.5768    0.0000 H   0  0  0  0  0  0  0  0  0  0  0  0
    4.5981   -6.3868    0.0000 H   0  0  0  0  0  0  0  0  0  0  0  0
    1.6900   -3.7299    0.0000 H   0  0  0  0  0  0  0  0  0  0  0  0
    1.4631   -4.5768    0.0000 H   0  0  0  0  0  0  0  0  0  0  0  0
    2.3100   -4.8038    0.0000 H   0  0  0  0  0  0  0  0  0  0  0  0
  1 26  1  0  0  0  0
  2 17  1  0  0  0  0
  2 18  1  0  0  0  0
  3 23  1  0  0  0  0
  3 28  1  0  0  0  0
  4  7  1  0  0  0  0
  4  8  1  0  0  0  0
  4 11  1  0  0  0  0
  5  9  1  0  0  0  0
  5 10  1  0  0  0  0
  5 12  1  0  0  0  0
  6 14  1  0  0  0  0
  6 18  2  0  0  0  0
  7  9  1  0  0  0  0
  7 29  1  0  0  0  0
  7 30  1  0  0  0  0
  8 10  1  0  0  0  0
  8 31  1  0  0  0  0
  8 32  1  0  0  0  0
  9 33  1  0  0  0  0
  9 34  1  0  0  0  0
 10 35  1  0  0  0  0
 10 36  1  0  0  0  0
 11 13  1  0  0  0  0
 11 37  1  0  0  0  0
 11 38  1  0  0  0  0
 12 14  1  0  0  0  0
 12 39  1  0  0  0  0
 12 40  1  0  0  0  0
 13 15  2  0  0  0  0
 13 16  1  0  0  0  0
 14 17  2  0  0  0  0
 15 19  1  0  0  0  0
 15 41  1  0  0  0  0
 16 20  2  0  0  0  0
 16 42  1  0  0  0  0
 17 43  1  0  0  0  0
 18 21  1  0  0  0  0
 19 22  2  0  0  0  0
 19 44  1  0  0  0  0
 20 22  1  0  0  0  0
 20 45  1  0  0  0  0
 21 23  2  0  0  0  0
 21 24  1  0  0  0  0
 22 46  1  0  0  0  0
 23 25  1  0  0  0  0
 24 26  2  0  0  0  0
 24 47  1  0  0  0  0
 25 27  2  0  0  0  0
 25 48  1  0  0  0  0
 26 27  1  0  0  0  0
 27 49  1  0  0  0  0
 28 50  1  0  0  0  0
 28 51  1  0  0  0  0
 28 52  1  0  0  0  0
M  END
> <PUBCHEM_COMPOUND_CID>
12050197

> <PUBCHEM_COMPOUND_CANONICALIZED>
1

> <PUBCHEM_CACTVS_COMPLEXITY>
471

> <PUBCHEM_CACTVS_HBOND_ACCEPTOR>
5

> <PUBCHEM_CACTVS_HBOND_DONOR>
0

> <PUBCHEM_CACTVS_ROTATABLE_BOND>
6

> <PUBCHEM_CACTVS_SUBSKEYS>
AAADceB7IABAEAAAAAAAAAAAAAAAAWAAAAA8YIAAAAAAAAAB0AAAHgRAAAABrAzF3gayh5MIFAikAyRiRACC+KBhKjwIiDQ+LLgMZqKksRuUMChmwBGoqheQwCAOABAAEAAIAAAAIAAgABAAAAAAAAAAAA==

> <PUBCHEM_IUPAC_OPENEYE_NAME>
4-[(4-benzylpiperazin-1-yl)methyl]-2-(5-bromo-2-methoxy-phenyl)thiazole

> <PUBCHEM_IUPAC_CAS_NAME>
2-(5-bromo-2-methoxyphenyl)-4-[[4-(phenylmethyl)-1-piperazinyl]methyl]thiazole

> <PUBCHEM_IUPAC_NAME_MARKUP>
4-[(4-benzylpiperazin-1-yl)methyl]-2-(5-bromo-2-methoxyphenyl)-1,3-thiazole

> <PUBCHEM_IUPAC_NAME>
4-[(4-benzylpiperazin-1-yl)methyl]-2-(5-bromo-2-methoxyphenyl)-1,3-thiazole

> <PUBCHEM_IUPAC_SYSTEMATIC_NAME>
2-(5-bromanyl-2-methoxy-phenyl)-4-[[4-(phenylmethyl)piperazin-1-yl]methyl]-1,3-thiazole

> <PUBCHEM_IUPAC_TRADITIONAL_NAME>
4-[(4-benzylpiperazino)methyl]-2-(5-bromo-2-methoxy-phenyl)thiazole

> <PUBCHEM_IUPAC_INCHI>
InChI=1S/C22H24BrN3OS/c1-27-21-8-7-18(23)13-20(21)22-24-19(16-28-22)15-26-11-9-25(10-12-26)14-17-5-3-2-4-6-17/h2-8,13,16H,9-12,14-15H2,1H3

> <PUBCHEM_IUPAC_INCHIKEY>
LDQRJOZTSIXFDZ-UHFFFAOYSA-N

> <PUBCHEM_XLOGP3_AA>
4.5

> <PUBCHEM_EXACT_MASS>
457.08235

> <PUBCHEM_MOLECULAR_FORMULA>
C22H24BrN3OS

> <PUBCHEM_MOLECULAR_WEIGHT>
458.4

> <PUBCHEM_OPENEYE_CAN_SMILES>
COC1=C(C=C(C=C1)Br)C2=NC(=CS2)CN3CCN(CC3)CC4=CC=CC=C4

> <PUBCHEM_OPENEYE_ISO_SMILES>
COC1=C(C=C(C=C1)Br)C2=NC(=CS2)CN3CCN(CC3)CC4=CC=CC=C4

> <PUBCHEM_CACTVS_TPSA>
56.8

> <PUBCHEM_MONOISOTOPIC_WEIGHT>
457.08235

> <PUBCHEM_TOTAL_CHARGE>
0

> <PUBCHEM_HEAVY_ATOM_COUNT>
28

> <PUBCHEM_ATOM_DEF_STEREO_COUNT>
0

> <PUBCHEM_ATOM_UDEF_STEREO_COUNT>
0

> <PUBCHEM_BOND_DEF_STEREO_COUNT>
0

> <PUBCHEM_BOND_UDEF_STEREO_COUNT>
0

> <PUBCHEM_ISOTOPIC_ATOM_COUNT>
0

> <PUBCHEM_COMPONENT_COUNT>
1

> <PUBCHEM_CACTVS_TAUTO_COUNT>
-1

> <PUBCHEM_COORDINATE_TYPE>
1
5
255

> <PUBCHEM_BONDANNOTATIONS>
13  15  8
13  16  8
14  17  8
15  19  8
16  20  8
19  22  8
2  17  8
2  18  8
20  22  8
21  23  8
21  24  8
23  25  8
24  26  8
25  27  8
26  27  8
6  14  8
6  18  8

$$$$
