156012196
  -OEChem-09292322422D

 42 45  0     1  0  0  0  0  0999 V2000
    5.1804    1.4936    0.0000 O   0  0  0  0  0  0  0  0  0  0  0  0
    6.9464    2.5314    0.0000 O   0  0  0  0  0  0  0  0  0  0  0  0
    7.7925   -2.0348    0.0000 N   0  0  3  0  0  0  0  0  0  0  0  0
    2.5381   -0.0137    0.0000 N   0  0  0  0  0  0  0  0  0  0  0  0
    6.9343   -1.5378    0.0000 C   0  0  3  0  0  0  0  0  0  0  0  0
    6.9343   -0.5378    0.0000 C   0  0  0  0  0  0  0  0  0  0  0  0
    6.0682   -2.0378    0.0000 C   0  0  0  0  0  0  0  0  0  0  0  0
    7.8443   -0.0310    0.0000 C   0  0  0  0  0  0  0  0  0  0  0  0
    8.6580   -1.5506    0.0000 C   0  0  0  0  0  0  0  0  0  0  0  0
    6.0682   -0.0378    0.0000 C   0  0  0  0  0  0  0  0  0  0  0  0
    8.6836   -0.5592    0.0000 C   0  0  0  0  0  0  0  0  0  0  0  0
    5.2022   -1.5378    0.0000 C   0  0  0  0  0  0  0  0  0  0  0  0
    5.2022   -0.5378    0.0000 C   0  0  0  0  0  0  0  0  0  0  0  0
    7.8523    1.0106    0.0000 C   0  0  0  0  0  0  0  0  0  0  0  0
    6.0522    1.0037    0.0000 C   0  0  0  0  0  0  0  0  0  0  0  0
    7.7851   -3.0348    0.0000 C   0  0  0  0  0  0  0  0  0  0  0  0
    6.9502    1.5314    0.0000 C   0  0  0  0  0  0  0  0  0  0  0  0
    4.3083   -2.0725    0.0000 C   0  0  0  0  0  0  0  0  0  0  0  0
    4.3083   -0.0032    0.0000 C   0  0  0  0  0  0  0  0  0  0  0  0
    3.4022   -0.5170    0.0000 C   0  0  0  0  0  0  0  0  0  0  0  0
    3.4022   -1.5587    0.0000 C   0  0  0  0  0  0  0  0  0  0  0  0
    7.8105    3.0348    0.0000 C   0  0  0  0  0  0  0  0  0  0  0  0
    6.9339   -2.1578    0.0000 H   0  0  0  0  0  0  0  0  0  0  0  0
    5.6697   -2.5128    0.0000 H   0  0  0  0  0  0  0  0  0  0  0  0
    6.4668   -2.5128    0.0000 H   0  0  0  0  0  0  0  0  0  0  0  0
    8.8597   -2.1369    0.0000 H   0  0  0  0  0  0  0  0  0  0  0  0
    9.2708   -1.4562    0.0000 H   0  0  0  0  0  0  0  0  0  0  0  0
    9.2907   -0.6851    0.0000 H   0  0  0  0  0  0  0  0  0  0  0  0
    8.9154    0.0158    0.0000 H   0  0  0  0  0  0  0  0  0  0  0  0
    8.3904    1.3185    0.0000 H   0  0  0  0  0  0  0  0  0  0  0  0
    7.1651   -3.0302    0.0000 H   0  0  0  0  0  0  0  0  0  0  0  0
    7.7805   -3.6547    0.0000 H   0  0  0  0  0  0  0  0  0  0  0  0
    8.4051   -3.0393    0.0000 H   0  0  0  0  0  0  0  0  0  0  0  0
    4.3154   -2.6925    0.0000 H   0  0  0  0  0  0  0  0  0  0  0  0
    4.3154    0.6168    0.0000 H   0  0  0  0  0  0  0  0  0  0  0  0
    2.8665   -1.8707    0.0000 H   0  0  0  0  0  0  0  0  0  0  0  0
    5.1733    2.1136    0.0000 H   0  0  0  0  0  0  0  0  0  0  0  0
    2.0000   -0.3216    0.0000 H   0  0  0  0  0  0  0  0  0  0  0  0
    2.5405    0.6063    0.0000 H   0  0  0  0  0  0  0  0  0  0  0  0
    8.1225    2.4990    0.0000 H   0  0  0  0  0  0  0  0  0  0  0  0
    8.3462    3.3468    0.0000 H   0  0  0  0  0  0  0  0  0  0  0  0
    7.4984    3.5705    0.0000 H   0  0  0  0  0  0  0  0  0  0  0  0
  1 15  1  0  0  0  0
  1 37  1  0  0  0  0
  2 17  1  0  0  0  0
  2 22  1  0  0  0  0
  3  5  1  0  0  0  0
  3  9  1  0  0  0  0
  3 16  1  0  0  0  0
  4 20  1  0  0  0  0
  4 38  1  0  0  0  0
  4 39  1  0  0  0  0
  5  6  1  0  0  0  0
  5  7  1  0  0  0  0
  5 23  1  0  0  0  0
  6  8  1  0  0  0  0
  6 10  2  0  0  0  0
  7 12  1  0  0  0  0
  7 24  1  0  0  0  0
  7 25  1  0  0  0  0
  8 11  1  0  0  0  0
  8 14  2  0  0  0  0
  9 11  1  0  0  0  0
  9 26  1  0  0  0  0
  9 27  1  0  0  0  0
 10 13  1  0  0  0  0
 10 15  1  0  0  0  0
 11 28  1  0  0  0  0
 11 29  1  0  0  0  0
 12 13  2  0  0  0  0
 12 18  1  0  0  0  0
 13 19  1  0  0  0  0
 14 17  1  0  0  0  0
 14 30  1  0  0  0  0
 15 17  2  0  0  0  0
 16 31  1  0  0  0  0
 16 32  1  0  0  0  0
 16 33  1  0  0  0  0
 18 21  2  0  0  0  0
 18 34  1  0  0  0  0
 19 20  2  0  0  0  0
 19 35  1  0  0  0  0
 20 21  1  0  0  0  0
 21 36  1  0  0  0  0
 22 40  1  0  0  0  0
 22 41  1  0  0  0  0
 22 42  1  0  0  0  0
M  END
> <PUBCHEM_COMPOUND_CID>
156012196

> <PUBCHEM_COMPOUND_CANONICALIZED>
1

> <PUBCHEM_CACTVS_COMPLEXITY>
418

> <PUBCHEM_CACTVS_HBOND_ACCEPTOR>
4

> <PUBCHEM_CACTVS_HBOND_DONOR>
2

> <PUBCHEM_CACTVS_ROTATABLE_BOND>
1

> <PUBCHEM_CACTVS_SUBSKEYS>
AAADceB7MAAAAAAAAAAAAAAAAAAAAAAAAAA8YMEAAAAAAADxQAAAHgAQCAAADCzBmAYyxoNABgCAAiRCQACCCAAgIgAIiAAO7IgNJiKGsZuEcCtk0BGL+Aew0PMOqAADQAAYQADQAAaAADSAAAAAAAAAAA==

> <PUBCHEM_IUPAC_OPENEYE_NAME>
10-amino-2-methoxy-6-methyl-5,6,6a,7-tetrahydro-4H-dibenzo[de,g]quinolin-1-ol

> <PUBCHEM_IUPAC_CAS_NAME>
10-amino-2-methoxy-6-methyl-5,6,6a,7-tetrahydro-4H-dibenzo[de,g]quinolin-1-ol

> <PUBCHEM_IUPAC_NAME_MARKUP>
10-amino-2-methoxy-6-methyl-5,6,6<I>a</I>,7-tetrahydro-4<I>H</I>-dibenzo[de,g]quinolin-1-ol

> <PUBCHEM_IUPAC_NAME>
10-amino-2-methoxy-6-methyl-5,6,6a,7-tetrahydro-4H-dibenzo[de,g]quinolin-1-ol

> <PUBCHEM_IUPAC_SYSTEMATIC_NAME>
10-azanyl-2-methoxy-6-methyl-5,6,6a,7-tetrahydro-4H-dibenzo[de,g]quinolin-1-ol

> <PUBCHEM_IUPAC_TRADITIONAL_NAME>
10-amino-2-methoxy-6-methyl-5,6,6a,7-tetrahydro-4H-dibenzo[de,g]quinolin-1-ol

> <PUBCHEM_IUPAC_INCHI>
InChI=1S/C18H20N2O2/c1-20-6-5-11-8-15(22-2)18(21)17-13-9-12(19)4-3-10(13)7-14(20)16(11)17/h3-4,8-9,14,21H,5-7,19H2,1-2H3

> <PUBCHEM_IUPAC_INCHIKEY>
LVGQSPSRQGIUSM-UHFFFAOYSA-N

> <PUBCHEM_XLOGP3>
1.9

> <PUBCHEM_EXACT_MASS>
296.152477885

> <PUBCHEM_MOLECULAR_FORMULA>
C18H20N2O2

> <PUBCHEM_MOLECULAR_WEIGHT>
296.4

> <PUBCHEM_OPENEYE_CAN_SMILES>
CN1CCC2=CC(=C(C3=C2C1CC4=C3C=C(C=C4)N)O)OC

> <PUBCHEM_OPENEYE_ISO_SMILES>
CN1CCC2=CC(=C(C3=C2C1CC4=C3C=C(C=C4)N)O)OC

> <PUBCHEM_CACTVS_TPSA>
58.7

> <PUBCHEM_MONOISOTOPIC_WEIGHT>
296.152477885

> <PUBCHEM_TOTAL_CHARGE>
0

> <PUBCHEM_HEAVY_ATOM_COUNT>
22

> <PUBCHEM_ATOM_DEF_STEREO_COUNT>
0

> <PUBCHEM_ATOM_UDEF_STEREO_COUNT>
1

> <PUBCHEM_BOND_DEF_STEREO_COUNT>
0

> <PUBCHEM_BOND_UDEF_STEREO_COUNT>
0

> <PUBCHEM_ISOTOPIC_ATOM_COUNT>
0

> <PUBCHEM_COMPONENT_COUNT>
1

> <PUBCHEM_CACTVS_TAUTO_COUNT>
-1

> <PUBCHEM_COORDINATE_TYPE>
1
5
255

> <PUBCHEM_BONDANNOTATIONS>
10  15  8
12  13  8
12  18  8
13  19  8
14  17  8
15  17  8
18  21  8
19  20  8
20  21  8
5  7  3
6  10  8
6  8  8
8  14  8

$$$$
