137660837
  -OEChem-09292322002D

 60 63  0     1  0  0  0  0  0999 V2000
   13.9385   -2.6092    0.0000 O   0  0  0  0  0  0  0  0  0  0  0  0
    6.1279   -0.0746    0.0000 O   0  0  0  0  0  0  0  0  0  0  0  0
   10.4580    0.4254    0.0000 N   0  0  3  0  0  0  0  0  0  0  0  0
    3.5298    0.4254    0.0000 N   0  0  0  0  0  0  0  0  0  0  0  0
    2.5836    0.1207    0.0000 N   0  0  0  0  0  0  0  0  0  0  0  0
   11.3241   -0.0746    0.0000 C   0  0  1  0  0  0  0  0  0  0  0  0
   11.3241   -1.0746    0.0000 C   0  0  0  0  0  0  0  0  0  0  0  0
   12.1901    0.4254    0.0000 C   0  0  0  0  0  0  0  0  0  0  0  0
   12.1901   -1.5746    0.0000 C   0  0  0  0  0  0  0  0  0  0  0  0
   13.0561   -0.0746    0.0000 C   0  0  0  0  0  0  0  0  0  0  0  0
   13.0561   -1.0746    0.0000 C   0  0  0  0  0  0  0  0  0  0  0  0
    9.5920   -0.0746    0.0000 C   0  0  0  0  0  0  0  0  0  0  0  0
   10.4580    1.4254    0.0000 C   0  0  0  0  0  0  0  0  0  0  0  0
    8.7260    0.4254    0.0000 C   0  0  0  0  0  0  0  0  0  0  0  0
    9.5920    1.9254    0.0000 C   0  0  0  0  0  0  0  0  0  0  0  0
   13.9501    0.4601    0.0000 C   0  0  0  0  0  0  0  0  0  0  0  0
   13.9501   -1.6093    0.0000 C   0  0  0  0  0  0  0  0  0  0  0  0
    7.8600   -0.0746    0.0000 C   0  0  0  0  0  0  0  0  0  0  0  0
   14.8561   -0.0538    0.0000 C   0  0  0  0  0  0  0  0  0  0  0  0
   14.8561   -1.0954    0.0000 C   0  0  0  0  0  0  0  0  0  0  0  0
    9.5920    2.9254    0.0000 C   0  0  0  0  0  0  0  0  0  0  0  0
    6.9939    0.4254    0.0000 C   0  0  0  0  0  0  0  0  0  0  0  0
    5.2619    0.4254    0.0000 C   0  0  0  0  0  0  0  0  0  0  0  0
    4.3958   -0.0746    0.0000 C   0  0  0  0  0  0  0  0  0  0  0  0
    5.2619    1.4254    0.0000 C   0  0  0  0  0  0  0  0  0  0  0  0
    3.5298    1.4254    0.0000 C   0  0  0  0  0  0  0  0  0  0  0  0
    4.3958    1.9254    0.0000 C   0  0  0  0  0  0  0  0  0  0  0  0
    2.5836    1.7301    0.0000 C   0  0  0  0  0  0  0  0  0  0  0  0
    2.0000    0.9254    0.0000 C   0  0  0  0  0  0  0  0  0  0  0  0
   11.3241    0.5454    0.0000 H   0  0  0  0  0  0  0  0  0  0  0  0
   10.7135   -0.9669    0.0000 H   0  0  0  0  0  0  0  0  0  0  0  0
   11.1120   -1.6572    0.0000 H   0  0  0  0  0  0  0  0  0  0  0  0
   12.5886    0.9003    0.0000 H   0  0  0  0  0  0  0  0  0  0  0  0
   11.7916    0.9003    0.0000 H   0  0  0  0  0  0  0  0  0  0  0  0
   11.7916   -2.0496    0.0000 H   0  0  0  0  0  0  0  0  0  0  0  0
   12.5886   -2.0496    0.0000 H   0  0  0  0  0  0  0  0  0  0  0  0
    9.1935   -0.5496    0.0000 H   0  0  0  0  0  0  0  0  0  0  0  0
    9.9905   -0.5496    0.0000 H   0  0  0  0  0  0  0  0  0  0  0  0
   11.0686    1.3177    0.0000 H   0  0  0  0  0  0  0  0  0  0  0  0
   10.6701    2.0080    0.0000 H   0  0  0  0  0  0  0  0  0  0  0  0
    9.1245    0.9003    0.0000 H   0  0  0  0  0  0  0  0  0  0  0  0
    8.3274    0.9003    0.0000 H   0  0  0  0  0  0  0  0  0  0  0  0
    8.9814    2.0330    0.0000 H   0  0  0  0  0  0  0  0  0  0  0  0
    9.3799    1.3428    0.0000 H   0  0  0  0  0  0  0  0  0  0  0  0
   13.9429    1.0800    0.0000 H   0  0  0  0  0  0  0  0  0  0  0  0
    7.4614   -0.5496    0.0000 H   0  0  0  0  0  0  0  0  0  0  0  0
    8.2585   -0.5496    0.0000 H   0  0  0  0  0  0  0  0  0  0  0  0
   15.3919    0.2583    0.0000 H   0  0  0  0  0  0  0  0  0  0  0  0
   15.3919   -1.4075    0.0000 H   0  0  0  0  0  0  0  0  0  0  0  0
   10.2120    2.9254    0.0000 H   0  0  0  0  0  0  0  0  0  0  0  0
    9.5920    3.5454    0.0000 H   0  0  0  0  0  0  0  0  0  0  0  0
    8.9720    2.9254    0.0000 H   0  0  0  0  0  0  0  0  0  0  0  0
    7.3925    0.9003    0.0000 H   0  0  0  0  0  0  0  0  0  0  0  0
    6.5954    0.9003    0.0000 H   0  0  0  0  0  0  0  0  0  0  0  0
   14.4718   -2.9254    0.0000 H   0  0  0  0  0  0  0  0  0  0  0  0
    4.3958   -0.6946    0.0000 H   0  0  0  0  0  0  0  0  0  0  0  0
    5.7988    1.7354    0.0000 H   0  0  0  0  0  0  0  0  0  0  0  0
    4.3958    2.5454    0.0000 H   0  0  0  0  0  0  0  0  0  0  0  0
    2.3910    2.3194    0.0000 H   0  0  0  0  0  0  0  0  0  0  0  0
    1.3800    0.9254    0.0000 H   0  0  0  0  0  0  0  0  0  0  0  0
  1 17  1  0  0  0  0
  1 55  1  0  0  0  0
  2 22  1  0  0  0  0
  2 23  1  0  0  0  0
  6  3  1  6  0  0  0
  3 12  1  0  0  0  0
  3 13  1  0  0  0  0
  4  5  1  0  0  0  0
  4 24  1  0  0  0  0
  4 26  1  0  0  0  0
  5 29  2  0  0  0  0
  6  7  1  0  0  0  0
  6  8  1  0  0  0  0
  6 30  1  0  0  0  0
  7  9  1  0  0  0  0
  7 31  1  0  0  0  0
  7 32  1  0  0  0  0
  8 10  1  0  0  0  0
  8 33  1  0  0  0  0
  8 34  1  0  0  0  0
  9 11  1  0  0  0  0
  9 35  1  0  0  0  0
  9 36  1  0  0  0  0
 10 11  2  0  0  0  0
 10 16  1  0  0  0  0
 11 17  1  0  0  0  0
 12 14  1  0  0  0  0
 12 37  1  0  0  0  0
 12 38  1  0  0  0  0
 13 15  1  0  0  0  0
 13 39  1  0  0  0  0
 13 40  1  0  0  0  0
 14 18  1  0  0  0  0
 14 41  1  0  0  0  0
 14 42  1  0  0  0  0
 15 21  1  0  0  0  0
 15 43  1  0  0  0  0
 15 44  1  0  0  0  0
 16 19  2  0  0  0  0
 16 45  1  0  0  0  0
 17 20  2  0  0  0  0
 18 22  1  0  0  0  0
 18 46  1  0  0  0  0
 18 47  1  0  0  0  0
 19 20  1  0  0  0  0
 19 48  1  0  0  0  0
 20 49  1  0  0  0  0
 21 50  1  0  0  0  0
 21 51  1  0  0  0  0
 21 52  1  0  0  0  0
 22 53  1  0  0  0  0
 22 54  1  0  0  0  0
 23 24  2  0  0  0  0
 23 25  1  0  0  0  0
 24 56  1  0  0  0  0
 25 27  2  0  0  0  0
 25 57  1  0  0  0  0
 26 27  1  0  0  0  0
 26 28  2  0  0  0  0
 27 58  1  0  0  0  0
 28 29  1  0  0  0  0
 28 59  1  0  0  0  0
 29 60  1  0  0  0  0
M  END
> <PUBCHEM_COMPOUND_CID>
137660837

> <PUBCHEM_COMPOUND_CANONICALIZED>
1

> <PUBCHEM_CACTVS_COMPLEXITY>
491

> <PUBCHEM_CACTVS_HBOND_ACCEPTOR>
4

> <PUBCHEM_CACTVS_HBOND_DONOR>
1

> <PUBCHEM_CACTVS_ROTATABLE_BOND>
9

> <PUBCHEM_CACTVS_SUBSKEYS>
AAADceB7MAAAAAAAAAAAAAAAAAAAAWAAAAA8YIAAAAAAAFjB8AAAHgAICAAADCzhngY+xrMIFgCiAzRnRASSjCAx4iAY2CA/bJgOJuLG8duH/CjkyBHY+Aew0LMOgAABAAAYAAAQAAKAADAAAAAAAAAAAA==

> <PUBCHEM_IUPAC_OPENEYE_NAME>
(2S)-2-[propyl(4-pyrazolo[1,5-a]pyridin-6-yloxybutyl)amino]tetralin-5-ol

> <PUBCHEM_IUPAC_CAS_NAME>
(6S)-6-[propyl-[4-(6-pyrazolo[1,5-a]pyridinyloxy)butyl]amino]-5,6,7,8-tetrahydronaphthalen-1-ol

> <PUBCHEM_IUPAC_NAME_MARKUP>
(6<I>S</I>)-6-[propyl(4-pyrazolo[1,5-a]pyridin-6-yloxybutyl)amino]-5,6,7,8-tetrahydronaphthalen-1-ol

> <PUBCHEM_IUPAC_NAME>
(6S)-6-[propyl(4-pyrazolo[1,5-a]pyridin-6-yloxybutyl)amino]-5,6,7,8-tetrahydronaphthalen-1-ol

> <PUBCHEM_IUPAC_SYSTEMATIC_NAME>
(6S)-6-[propyl(4-pyrazolo[1,5-a]pyridin-6-yloxybutyl)amino]-5,6,7,8-tetrahydronaphthalen-1-ol

> <PUBCHEM_IUPAC_TRADITIONAL_NAME>
(2S)-2-[propyl(4-pyrazolo[1,5-a]pyridin-6-yloxybutyl)amino]tetralin-5-ol

> <PUBCHEM_IUPAC_INCHI>
InChI=1S/C24H31N3O2/c1-2-14-26(21-9-11-23-19(17-21)6-5-7-24(23)28)15-3-4-16-29-22-10-8-20-12-13-25-27(20)18-22/h5-8,10,12-13,18,21,28H,2-4,9,11,14-17H2,1H3/t21-/m0/s1

> <PUBCHEM_IUPAC_INCHIKEY>
JQXMVFBXXAKVDC-NRFANRHFSA-N

> <PUBCHEM_XLOGP3_AA>
4.7

> <PUBCHEM_EXACT_MASS>
393.24162724

> <PUBCHEM_MOLECULAR_FORMULA>
C24H31N3O2

> <PUBCHEM_MOLECULAR_WEIGHT>
393.5

> <PUBCHEM_OPENEYE_CAN_SMILES>
CCCN(CCCCOC1=CN2C(=CC=N2)C=C1)C3CCC4=C(C3)C=CC=C4O

> <PUBCHEM_OPENEYE_ISO_SMILES>
CCCN(CCCCOC1=CN2C(=CC=N2)C=C1)[C@H]3CCC4=C(C3)C=CC=C4O

> <PUBCHEM_CACTVS_TPSA>
50

> <PUBCHEM_MONOISOTOPIC_WEIGHT>
393.24162724

> <PUBCHEM_TOTAL_CHARGE>
0

> <PUBCHEM_HEAVY_ATOM_COUNT>
29

> <PUBCHEM_ATOM_DEF_STEREO_COUNT>
1

> <PUBCHEM_ATOM_UDEF_STEREO_COUNT>
0

> <PUBCHEM_BOND_DEF_STEREO_COUNT>
0

> <PUBCHEM_BOND_UDEF_STEREO_COUNT>
0

> <PUBCHEM_ISOTOPIC_ATOM_COUNT>
0

> <PUBCHEM_COMPONENT_COUNT>
1

> <PUBCHEM_CACTVS_TAUTO_COUNT>
-1

> <PUBCHEM_COORDINATE_TYPE>
1
5
255

> <PUBCHEM_BONDANNOTATIONS>
10  11  8
10  16  8
11  17  8
16  19  8
17  20  8
19  20  8
23  24  8
23  25  8
25  27  8
26  27  8
26  28  8
28  29  8
6  3  6
4  24  8
4  26  8
4  5  8
5  29  8

$$$$
