137631570
  -OEChem-09292322062D

 55 59  0     1  0  0  0  0  0999 V2000
   11.8109   -3.0266    0.0000 S   0  0  0  0  0  0  0  0  0  0  0  0
   12.1410   -0.5578    0.0000 S   0  0  0  0  0  0  0  0  0  0  0  0
    2.9176    2.7104    0.0000 O   0  0  0  0  0  0  0  0  0  0  0  0
    4.6660   -1.3242    0.0000 O   0  0  0  0  0  0  0  0  0  0  0  0
    8.1301   -0.3242    0.0000 N   0  0  0  0  0  0  0  0  0  0  0  0
    9.8622   -1.3242    0.0000 N   0  0  0  0  0  0  0  0  0  0  0  0
    3.8000    0.1758    0.0000 N   0  0  0  0  0  0  0  0  0  0  0  0
    4.6660    1.6758    0.0000 N   0  0  0  0  0  0  0  0  0  0  0  0
    8.1301   -1.3242    0.0000 C   0  0  0  0  0  0  0  0  0  0  0  0
    8.9962    0.1758    0.0000 C   0  0  0  0  0  0  0  0  0  0  0  0
    8.9962   -1.8242    0.0000 C   0  0  0  0  0  0  0  0  0  0  0  0
    9.8622   -0.3242    0.0000 C   0  0  0  0  0  0  0  0  0  0  0  0
    7.2641    0.1758    0.0000 C   0  0  0  0  0  0  0  0  0  0  0  0
    6.3981   -0.3242    0.0000 C   0  0  0  0  0  0  0  0  0  0  0  0
    2.9061   -0.3588    0.0000 C   0  0  0  0  0  0  0  0  0  0  0  0
    2.9061    1.7105    0.0000 C   0  0  3  0  0  0  0  0  0  0  0  0
    2.0000    0.1550    0.0000 C   0  0  0  0  0  0  0  0  0  0  0  0
    2.0000    1.1966    0.0000 C   0  0  0  0  0  0  0  0  0  0  0  0
    5.5321    0.1758    0.0000 C   0  0  0  0  0  0  0  0  0  0  0  0
    3.8000    1.1758    0.0000 C   0  0  0  0  0  0  0  0  0  0  0  0
    4.6660   -0.3242    0.0000 C   0  0  0  0  0  0  0  0  0  0  0  0
   10.7282   -1.8242    0.0000 C   0  0  0  0  0  0  0  0  0  0  0  0
    5.5321    1.1758    0.0000 C   0  0  0  0  0  0  0  0  0  0  0  0
   11.6418   -1.4174    0.0000 C   0  0  0  0  0  0  0  0  0  0  0  0
   10.8327   -2.8187    0.0000 C   0  0  0  0  0  0  0  0  0  0  0  0
    6.3981    1.6758    0.0000 C   0  0  0  0  0  0  0  0  0  0  0  0
   12.3109   -2.1606    0.0000 C   0  0  0  0  0  0  0  0  0  0  0  0
   13.2180   -1.7539    0.0000 C   0  0  0  0  0  0  0  0  0  0  0  0
   13.1132   -0.7654    0.0000 C   0  0  0  0  0  0  0  0  0  0  0  0
    7.5196   -1.2165    0.0000 H   0  0  0  0  0  0  0  0  0  0  0  0
    7.9181   -1.9068    0.0000 H   0  0  0  0  0  0  0  0  0  0  0  0
    9.3947    0.6508    0.0000 H   0  0  0  0  0  0  0  0  0  0  0  0
    8.5976    0.6508    0.0000 H   0  0  0  0  0  0  0  0  0  0  0  0
    8.5976   -2.2991    0.0000 H   0  0  0  0  0  0  0  0  0  0  0  0
    9.3947   -2.2991    0.0000 H   0  0  0  0  0  0  0  0  0  0  0  0
   10.4728   -0.4318    0.0000 H   0  0  0  0  0  0  0  0  0  0  0  0
   10.0742    0.2584    0.0000 H   0  0  0  0  0  0  0  0  0  0  0  0
    7.6626    0.6508    0.0000 H   0  0  0  0  0  0  0  0  0  0  0  0
    6.8656    0.6508    0.0000 H   0  0  0  0  0  0  0  0  0  0  0  0
    5.9996   -0.7991    0.0000 H   0  0  0  0  0  0  0  0  0  0  0  0
    6.7966   -0.7991    0.0000 H   0  0  0  0  0  0  0  0  0  0  0  0
    2.5124   -0.8379    0.0000 H   0  0  0  0  0  0  0  0  0  0  0  0
    3.3107   -0.8286    0.0000 H   0  0  0  0  0  0  0  0  0  0  0  0
    2.3721    2.0256    0.0000 H   0  0  0  0  0  0  0  0  0  0  0  0
    1.3891    0.2611    0.0000 H   0  0  0  0  0  0  0  0  0  0  0  0
    1.7909   -0.4287    0.0000 H   0  0  0  0  0  0  0  0  0  0  0  0
    1.7909    1.7803    0.0000 H   0  0  0  0  0  0  0  0  0  0  0  0
    1.3891    1.0905    0.0000 H   0  0  0  0  0  0  0  0  0  0  0  0
   10.3720   -3.2336    0.0000 H   0  0  0  0  0  0  0  0  0  0  0  0
    6.7081    1.1389    0.0000 H   0  0  0  0  0  0  0  0  0  0  0  0
    6.9350    1.9858    0.0000 H   0  0  0  0  0  0  0  0  0  0  0  0
    6.0881    2.2128    0.0000 H   0  0  0  0  0  0  0  0  0  0  0  0
    2.3843    3.0266    0.0000 H   0  0  0  0  0  0  0  0  0  0  0  0
   13.7554   -2.0630    0.0000 H   0  0  0  0  0  0  0  0  0  0  0  0
   13.5740   -0.3505    0.0000 H   0  0  0  0  0  0  0  0  0  0  0  0
  1 25  1  0  0  0  0
  1 27  1  0  0  0  0
  2 24  1  0  0  0  0
  2 29  1  0  0  0  0
  3 16  1  0  0  0  0
  3 53  1  0  0  0  0
  4 21  2  0  0  0  0
  5  9  1  0  0  0  0
  5 10  1  0  0  0  0
  5 13  1  0  0  0  0
  6 11  1  0  0  0  0
  6 12  1  0  0  0  0
  6 22  1  0  0  0  0
  7 15  1  0  0  0  0
  7 20  1  0  0  0  0
  7 21  1  0  0  0  0
  8 20  2  0  0  0  0
  8 23  1  0  0  0  0
  9 11  1  0  0  0  0
  9 30  1  0  0  0  0
  9 31  1  0  0  0  0
 10 12  1  0  0  0  0
 10 32  1  0  0  0  0
 10 33  1  0  0  0  0
 11 34  1  0  0  0  0
 11 35  1  0  0  0  0
 12 36  1  0  0  0  0
 12 37  1  0  0  0  0
 13 14  1  0  0  0  0
 13 38  1  0  0  0  0
 13 39  1  0  0  0  0
 14 19  1  0  0  0  0
 14 40  1  0  0  0  0
 14 41  1  0  0  0  0
 15 17  1  0  0  0  0
 15 42  1  0  0  0  0
 15 43  1  0  0  0  0
 16 18  1  0  0  0  0
 16 20  1  0  0  0  0
 16 44  1  0  0  0  0
 17 18  1  0  0  0  0
 17 45  1  0  0  0  0
 17 46  1  0  0  0  0
 18 47  1  0  0  0  0
 18 48  1  0  0  0  0
 19 21  1  0  0  0  0
 19 23  2  0  0  0  0
 22 24  1  0  0  0  0
 22 25  2  0  0  0  0
 23 26  1  0  0  0  0
 24 27  2  0  0  0  0
 25 49  1  0  0  0  0
 26 50  1  0  0  0  0
 26 51  1  0  0  0  0
 26 52  1  0  0  0  0
 27 28  1  0  0  0  0
 28 29  2  0  0  0  0
 28 54  1  0  0  0  0
 29 55  1  0  0  0  0
M  END
> <PUBCHEM_COMPOUND_CID>
137631570

> <PUBCHEM_COMPOUND_CANONICALIZED>
1

> <PUBCHEM_CACTVS_COMPLEXITY>
720

> <PUBCHEM_CACTVS_HBOND_ACCEPTOR>
7

> <PUBCHEM_CACTVS_HBOND_DONOR>
1

> <PUBCHEM_CACTVS_ROTATABLE_BOND>
4

> <PUBCHEM_CACTVS_SUBSKEYS>
AAADceB7sABgAAAAAAAAAAAAAAAAASJAAAAsWIAAAAASAACB+AAAHgQACAAADBzl0AazwYMAAgisAidydASDAIEhChBJiB04ZMgKcDLgmJGUYAxkhgD4yUc0AAAAAAAAAAAAAAAAAAAAAAAAAAAAAAAAAA==

> <PUBCHEM_IUPAC_OPENEYE_NAME>
9-hydroxy-2-methyl-3-[2-(4-thieno[3,2-b]thiophen-6-ylpiperazin-1-yl)ethyl]-6,7,8,9-tetrahydropyrido[1,2-a]pyrimidin-4-one

> <PUBCHEM_IUPAC_CAS_NAME>
9-hydroxy-2-methyl-3-[2-[4-(6-thieno[3,2-b]thiophenyl)-1-piperazinyl]ethyl]-6,7,8,9-tetrahydropyrido[1,2-a]pyrimidin-4-one

> <PUBCHEM_IUPAC_NAME_MARKUP>
9-hydroxy-2-methyl-3-[2-(4-thieno[3,2-b]thiophen-6-ylpiperazin-1-yl)ethyl]-6,7,8,9-tetrahydropyrido[1,2-a]pyrimidin-4-one

> <PUBCHEM_IUPAC_NAME>
9-hydroxy-2-methyl-3-[2-(4-thieno[3,2-b]thiophen-6-ylpiperazin-1-yl)ethyl]-6,7,8,9-tetrahydropyrido[1,2-a]pyrimidin-4-one

> <PUBCHEM_IUPAC_SYSTEMATIC_NAME>
2-methyl-9-oxidanyl-3-[2-(4-thieno[3,2-b]thiophen-6-ylpiperazin-1-yl)ethyl]-6,7,8,9-tetrahydropyrido[1,2-a]pyrimidin-4-one

> <PUBCHEM_IUPAC_TRADITIONAL_NAME>
9-hydroxy-2-methyl-3-[2-(4-thieno[3,2-b]thiophen-6-ylpiperazino)ethyl]-6,7,8,9-tetrahydropyrido[1,2-a]pyrimidin-4-one

> <PUBCHEM_IUPAC_INCHI>
InChI=1S/C21H26N4O2S2/c1-14-15(21(27)25-6-2-3-17(26)20(25)22-14)4-7-23-8-10-24(11-9-23)16-13-29-18-5-12-28-19(16)18/h5,12-13,17,26H,2-4,6-11H2,1H3

> <PUBCHEM_IUPAC_INCHIKEY>
GNKPMACIWWMQOV-UHFFFAOYSA-N

> <PUBCHEM_XLOGP3_AA>
2.4

> <PUBCHEM_EXACT_MASS>
430.14971843

> <PUBCHEM_MOLECULAR_FORMULA>
C21H26N4O2S2

> <PUBCHEM_MOLECULAR_WEIGHT>
430.6

> <PUBCHEM_OPENEYE_CAN_SMILES>
CC1=C(C(=O)N2CCCC(C2=N1)O)CCN3CCN(CC3)C4=CSC5=C4SC=C5

> <PUBCHEM_OPENEYE_ISO_SMILES>
CC1=C(C(=O)N2CCCC(C2=N1)O)CCN3CCN(CC3)C4=CSC5=C4SC=C5

> <PUBCHEM_CACTVS_TPSA>
116

> <PUBCHEM_MONOISOTOPIC_WEIGHT>
430.14971843

> <PUBCHEM_TOTAL_CHARGE>
0

> <PUBCHEM_HEAVY_ATOM_COUNT>
29

> <PUBCHEM_ATOM_DEF_STEREO_COUNT>
0

> <PUBCHEM_ATOM_UDEF_STEREO_COUNT>
1

> <PUBCHEM_BOND_DEF_STEREO_COUNT>
0

> <PUBCHEM_BOND_UDEF_STEREO_COUNT>
0

> <PUBCHEM_ISOTOPIC_ATOM_COUNT>
0

> <PUBCHEM_COMPONENT_COUNT>
1

> <PUBCHEM_CACTVS_TAUTO_COUNT>
-1

> <PUBCHEM_COORDINATE_TYPE>
1
5
255

> <PUBCHEM_BONDANNOTATIONS>
1  25  8
1  27  8
19  21  8
19  23  8
2  24  8
2  29  8
22  24  8
22  25  8
24  27  8
27  28  8
28  29  8
16  3  3
7  20  8
7  21  8
8  20  8
8  23  8

$$$$
