24900749
  -OEChem-09292322042D

 66 69  0     1  0  0  0  0  0999 V2000
   13.3385   -2.0403    0.0000 S   0  0  0  0  0  0  0  0  0  0  0  0
   12.3923   -0.3450    0.0000 O   0  0  0  0  0  0  0  0  0  0  0  0
   11.5263   -4.8450    0.0000 O   0  0  0  0  0  0  0  0  0  0  0  0
    4.5981    4.1550    0.0000 O   0  0  0  0  0  0  0  0  0  0  0  0
   14.9221   -2.8450    0.0000 O   0  0  0  0  0  0  0  0  0  0  0  0
   10.6603    0.6550    0.0000 N   0  0  0  0  0  0  0  0  0  0  0  0
    5.4641    2.6550    0.0000 N   0  0  3  0  0  0  0  0  0  0  0  0
   13.3385   -3.6497    0.0000 N   0  0  0  0  0  0  0  0  0  0  0  0
   11.5263   -0.8450    0.0000 C   0  0  1  0  0  0  0  0  0  0  0  0
   10.6603   -0.3450    0.0000 C   0  0  0  0  0  0  0  0  0  0  0  0
    9.7942    2.1550    0.0000 C   0  0  0  0  0  0  0  0  0  0  0  0
    9.7942    1.1550    0.0000 C   0  0  0  0  0  0  0  0  0  0  0  0
   11.5263   -1.8450    0.0000 C   0  0  0  0  0  0  0  0  0  0  0  0
    8.9282    2.6550    0.0000 C   0  0  0  0  0  0  0  0  0  0  0  0
    6.3301    2.1550    0.0000 C   0  0  0  0  0  0  0  0  0  0  0  0
    7.1962    2.6550    0.0000 C   0  0  0  0  0  0  0  0  0  0  0  0
   12.3923   -2.3450    0.0000 C   0  0  0  0  0  0  0  0  0  0  0  0
    8.0622    2.1550    0.0000 C   0  0  0  0  0  0  0  0  0  0  0  0
    4.5981    2.1550    0.0000 C   0  0  0  0  0  0  0  0  0  0  0  0
   12.3923   -3.3450    0.0000 C   0  0  0  0  0  0  0  0  0  0  0  0
   10.6603   -2.3450    0.0000 C   0  0  0  0  0  0  0  0  0  0  0  0
    8.9282    3.6550    0.0000 C   0  0  0  0  0  0  0  0  0  0  0  0
    7.1962    3.6550    0.0000 C   0  0  0  0  0  0  0  0  0  0  0  0
    3.7320    2.6550    0.0000 C   0  0  0  0  0  0  0  0  0  0  0  0
    8.0622    4.1550    0.0000 C   0  0  0  0  0  0  0  0  0  0  0  0
   11.5263   -3.8450    0.0000 C   0  0  0  0  0  0  0  0  0  0  0  0
    5.4641    3.6550    0.0000 C   0  0  0  0  0  0  0  0  0  0  0  0
   10.6603   -3.3450    0.0000 C   0  0  0  0  0  0  0  0  0  0  0  0
   13.9221   -2.8450    0.0000 C   0  0  0  0  0  0  0  0  0  0  0  0
    3.7320    3.6550    0.0000 C   0  0  0  0  0  0  0  0  0  0  0  0
    2.8660    2.1550    0.0000 C   0  0  0  0  0  0  0  0  0  0  0  0
    2.8660    4.1550    0.0000 C   0  0  0  0  0  0  0  0  0  0  0  0
    2.0000    2.6550    0.0000 C   0  0  0  0  0  0  0  0  0  0  0  0
    2.0000    3.6550    0.0000 C   0  0  0  0  0  0  0  0  0  0  0  0
    4.5981    5.1550    0.0000 C   0  0  0  0  0  0  0  0  0  0  0  0
   12.0632   -1.1550    0.0000 H   0  0  0  0  0  0  0  0  0  0  0  0
   10.0497   -0.2373    0.0000 H   0  0  0  0  0  0  0  0  0  0  0  0
   10.4482   -0.9276    0.0000 H   0  0  0  0  0  0  0  0  0  0  0  0
   10.4048    2.0473    0.0000 H   0  0  0  0  0  0  0  0  0  0  0  0
   10.0063    2.7376    0.0000 H   0  0  0  0  0  0  0  0  0  0  0  0
    9.1836    1.2627    0.0000 H   0  0  0  0  0  0  0  0  0  0  0  0
    9.5822    0.5724    0.0000 H   0  0  0  0  0  0  0  0  0  0  0  0
   11.1972    0.9650    0.0000 H   0  0  0  0  0  0  0  0  0  0  0  0
    5.9316    1.6800    0.0000 H   0  0  0  0  0  0  0  0  0  0  0  0
    6.7287    1.6800    0.0000 H   0  0  0  0  0  0  0  0  0  0  0  0
    8.0622    1.5350    0.0000 H   0  0  0  0  0  0  0  0  0  0  0  0
    4.1996    1.6800    0.0000 H   0  0  0  0  0  0  0  0  0  0  0  0
    4.9966    1.6800    0.0000 H   0  0  0  0  0  0  0  0  0  0  0  0
   10.1233   -2.0350    0.0000 H   0  0  0  0  0  0  0  0  0  0  0  0
    9.4651    3.9650    0.0000 H   0  0  0  0  0  0  0  0  0  0  0  0
    6.6592    3.9650    0.0000 H   0  0  0  0  0  0  0  0  0  0  0  0
    8.0622    4.7750    0.0000 H   0  0  0  0  0  0  0  0  0  0  0  0
    6.0841    3.6550    0.0000 H   0  0  0  0  0  0  0  0  0  0  0  0
    5.4641    4.2750    0.0000 H   0  0  0  0  0  0  0  0  0  0  0  0
    4.8441    3.6550    0.0000 H   0  0  0  0  0  0  0  0  0  0  0  0
   10.1233   -3.6550    0.0000 H   0  0  0  0  0  0  0  0  0  0  0  0
   13.5311   -4.2391    0.0000 H   0  0  0  0  0  0  0  0  0  0  0  0
   12.3923    0.2750    0.0000 H   0  0  0  0  0  0  0  0  0  0  0  0
    2.8660    1.5350    0.0000 H   0  0  0  0  0  0  0  0  0  0  0  0
    2.8660    4.7750    0.0000 H   0  0  0  0  0  0  0  0  0  0  0  0
    1.4631    2.3450    0.0000 H   0  0  0  0  0  0  0  0  0  0  0  0
    1.4631    3.9650    0.0000 H   0  0  0  0  0  0  0  0  0  0  0  0
   10.9893   -5.1550    0.0000 H   0  0  0  0  0  0  0  0  0  0  0  0
    5.2181    5.1550    0.0000 H   0  0  0  0  0  0  0  0  0  0  0  0
    4.5981    5.7750    0.0000 H   0  0  0  0  0  0  0  0  0  0  0  0
    3.9781    5.1550    0.0000 H   0  0  0  0  0  0  0  0  0  0  0  0
  1 17  1  0  0  0  0
  1 29  1  0  0  0  0
  9  2  1  6  0  0  0
  2 58  1  0  0  0  0
  3 26  1  0  0  0  0
  3 63  1  0  0  0  0
  4 30  1  0  0  0  0
  4 35  1  0  0  0  0
  5 29  2  0  0  0  0
  6 10  1  0  0  0  0
  6 12  1  0  0  0  0
  6 43  1  0  0  0  0
  7 15  1  0  0  0  0
  7 19  1  0  0  0  0
  7 27  1  0  0  0  0
  8 20  1  0  0  0  0
  8 29  1  0  0  0  0
  8 57  1  0  0  0  0
  9 10  1  0  0  0  0
  9 13  1  0  0  0  0
  9 36  1  0  0  0  0
 10 37  1  0  0  0  0
 10 38  1  0  0  0  0
 11 12  1  0  0  0  0
 11 14  1  0  0  0  0
 11 39  1  0  0  0  0
 11 40  1  0  0  0  0
 12 41  1  0  0  0  0
 12 42  1  0  0  0  0
 13 17  2  0  0  0  0
 13 21  1  0  0  0  0
 14 18  2  0  0  0  0
 14 22  1  0  0  0  0
 15 16  1  0  0  0  0
 15 44  1  0  0  0  0
 15 45  1  0  0  0  0
 16 18  1  0  0  0  0
 16 23  2  0  0  0  0
 17 20  1  0  0  0  0
 18 46  1  0  0  0  0
 19 24  1  0  0  0  0
 19 47  1  0  0  0  0
 19 48  1  0  0  0  0
 20 26  2  0  0  0  0
 21 28  2  0  0  0  0
 21 49  1  0  0  0  0
 22 25  2  0  0  0  0
 22 50  1  0  0  0  0
 23 25  1  0  0  0  0
 23 51  1  0  0  0  0
 24 30  1  0  0  0  0
 24 31  2  0  0  0  0
 25 52  1  0  0  0  0
 26 28  1  0  0  0  0
 27 53  1  0  0  0  0
 27 54  1  0  0  0  0
 27 55  1  0  0  0  0
 28 56  1  0  0  0  0
 30 32  2  0  0  0  0
 31 33  1  0  0  0  0
 31 59  1  0  0  0  0
 32 34  1  0  0  0  0
 32 60  1  0  0  0  0
 33 34  2  0  0  0  0
 33 61  1  0  0  0  0
 34 62  1  0  0  0  0
 35 64  1  0  0  0  0
 35 65  1  0  0  0  0
 35 66  1  0  0  0  0
M  END
> <PUBCHEM_COMPOUND_CID>
24900749

> <PUBCHEM_COMPOUND_CANONICALIZED>
1

> <PUBCHEM_CACTVS_COMPLEXITY>
670

> <PUBCHEM_CACTVS_HBOND_ACCEPTOR>
7

> <PUBCHEM_CACTVS_HBOND_DONOR>
4

> <PUBCHEM_CACTVS_ROTATABLE_BOND>
11

> <PUBCHEM_CACTVS_SUBSKEYS>
AAADceB7OABAAAAAAAAAAAAAAAAAAWAAAAAwYMAAAAAAAFgBUAAAHgQQCAAADBzh2AYyx4PABgiIAiRCUACCCABhKBAIiJQPTIgONiL2sZuEcChm1BHY+Aew4OQOIAACRAAMEQBAAASIABgiAAAAAAAAAA==

> <PUBCHEM_IUPAC_OPENEYE_NAME>
4-hydroxy-7-[(1R)-1-hydroxy-2-[2-[3-[[(2-methoxyphenyl)methyl-methyl-amino]methyl]phenyl]ethylamino]ethyl]-3H-1,3-benzothiazol-2-one

> <PUBCHEM_IUPAC_CAS_NAME>
4-hydroxy-7-[(1R)-1-hydroxy-2-[2-[3-[[(2-methoxyphenyl)methyl-methylamino]methyl]phenyl]ethylamino]ethyl]-3H-1,3-benzothiazol-2-one

> <PUBCHEM_IUPAC_NAME_MARKUP>
4-hydroxy-7-[(1<I>R</I>)-1-hydroxy-2-[2-[3-[[(2-methoxyphenyl)methyl-methylamino]methyl]phenyl]ethylamino]ethyl]-3<I>H</I>-1,3-benzothiazol-2-one

> <PUBCHEM_IUPAC_NAME>
4-hydroxy-7-[(1R)-1-hydroxy-2-[2-[3-[[(2-methoxyphenyl)methyl-methylamino]methyl]phenyl]ethylamino]ethyl]-3H-1,3-benzothiazol-2-one

> <PUBCHEM_IUPAC_SYSTEMATIC_NAME>
7-[(1R)-2-[2-[3-[[(2-methoxyphenyl)methyl-methyl-amino]methyl]phenyl]ethylamino]-1-oxidanyl-ethyl]-4-oxidanyl-3H-1,3-benzothiazol-2-one

> <PUBCHEM_IUPAC_TRADITIONAL_NAME>
4-hydroxy-7-[(1R)-1-hydroxy-2-[2-[3-[[methyl(o-anisyl)amino]methyl]phenyl]ethylamino]ethyl]-3H-1,3-benzothiazol-2-one

> <PUBCHEM_IUPAC_INCHI>
InChI=1S/C27H31N3O4S/c1-30(17-20-8-3-4-9-24(20)34-2)16-19-7-5-6-18(14-19)12-13-28-15-23(32)21-10-11-22(31)25-26(21)35-27(33)29-25/h3-11,14,23,28,31-32H,12-13,15-17H2,1-2H3,(H,29,33)/t23-/m0/s1

> <PUBCHEM_IUPAC_INCHIKEY>
PNTAECGMYJNBSW-QHCPKHFHSA-N

> <PUBCHEM_XLOGP3_AA>
3.3

> <PUBCHEM_EXACT_MASS>
493.20352765

> <PUBCHEM_MOLECULAR_FORMULA>
C27H31N3O4S

> <PUBCHEM_MOLECULAR_WEIGHT>
493.6

> <PUBCHEM_OPENEYE_CAN_SMILES>
CN(CC1=CC=CC(=C1)CCNCC(C2=C3C(=C(C=C2)O)NC(=O)S3)O)CC4=CC=CC=C4OC

> <PUBCHEM_OPENEYE_ISO_SMILES>
CN(CC1=CC=CC(=C1)CCNC[C@@H](C2=C3C(=C(C=C2)O)NC(=O)S3)O)CC4=CC=CC=C4OC

> <PUBCHEM_CACTVS_TPSA>
119

> <PUBCHEM_MONOISOTOPIC_WEIGHT>
493.20352765

> <PUBCHEM_TOTAL_CHARGE>
0

> <PUBCHEM_HEAVY_ATOM_COUNT>
35

> <PUBCHEM_ATOM_DEF_STEREO_COUNT>
1

> <PUBCHEM_ATOM_UDEF_STEREO_COUNT>
0

> <PUBCHEM_BOND_DEF_STEREO_COUNT>
0

> <PUBCHEM_BOND_UDEF_STEREO_COUNT>
0

> <PUBCHEM_ISOTOPIC_ATOM_COUNT>
0

> <PUBCHEM_COMPONENT_COUNT>
1

> <PUBCHEM_CACTVS_TAUTO_COUNT>
-1

> <PUBCHEM_COORDINATE_TYPE>
1
5
255

> <PUBCHEM_BONDANNOTATIONS>
1  17  8
1  29  8
13  17  8
13  21  8
14  18  8
14  22  8
16  18  8
16  23  8
17  20  8
9  2  6
20  26  8
21  28  8
22  25  8
23  25  8
24  30  8
24  31  8
26  28  8
30  32  8
31  33  8
32  34  8
33  34  8
8  20  8
8  29  8

$$$$
