44336057
  -OEChem-09292322152D

 63 67  0     0  0  0  0  0  0999 V2000
    2.0000    1.7189    0.0000 Cl  0  0  0  0  0  0  0  0  0  0  0  0
    9.3120   -1.3688    0.0000 O   0  0  0  0  0  0  0  0  0  0  0  0
   10.4710   -0.0816    0.0000 N   0  0  0  0  0  0  0  0  0  0  0  0
    7.8258   -0.0305    0.0000 N   0  0  0  0  0  0  0  0  0  0  0  0
    5.9236   -0.6486    0.0000 N   0  0  0  0  0  0  0  0  0  0  0  0
   11.2800   -0.6694    0.0000 C   0  0  0  0  0  0  0  0  0  0  0  0
   12.1460   -1.1694    0.0000 C   0  0  0  0  0  0  0  0  0  0  0  0
   10.4140   -1.1694    0.0000 C   0  0  0  0  0  0  0  0  0  0  0  0
   12.0890   -0.0816    0.0000 C   0  0  0  0  0  0  0  0  0  0  0  0
   12.1460   -2.1694    0.0000 C   0  0  0  0  0  0  0  0  0  0  0  0
   10.4140   -2.1694    0.0000 C   0  0  0  0  0  0  0  0  0  0  0  0
   11.2800   -2.6694    0.0000 C   0  0  0  0  0  0  0  0  0  0  0  0
   11.7800    0.8694    0.0000 C   0  0  0  0  0  0  0  0  0  0  0  0
   10.7800    0.8694    0.0000 C   0  0  0  0  0  0  0  0  0  0  0  0
    9.5200   -0.3907    0.0000 C   0  0  0  0  0  0  0  0  0  0  0  0
    8.7768    0.2785    0.0000 C   0  0  0  0  0  0  0  0  0  0  0  0
   12.3147    1.7634    0.0000 C   0  0  0  0  0  0  0  0  0  0  0  0
   10.2454    1.7634    0.0000 C   0  0  0  0  0  0  0  0  0  0  0  0
    7.6178   -1.0087    0.0000 C   0  0  0  0  0  0  0  0  0  0  0  0
    7.0826    0.6386    0.0000 C   0  0  0  0  0  0  0  0  0  0  0  0
   11.8008    2.6694    0.0000 C   0  0  0  0  0  0  0  0  0  0  0  0
   10.7592    2.6694    0.0000 C   0  0  0  0  0  0  0  0  0  0  0  0
    6.6668   -1.3177    0.0000 C   0  0  0  0  0  0  0  0  0  0  0  0
    6.1316    0.3296    0.0000 C   0  0  0  0  0  0  0  0  0  0  0  0
    4.9726   -0.9576    0.0000 C   0  0  0  0  0  0  0  0  0  0  0  0
    4.2294   -0.2885    0.0000 C   0  0  0  0  0  0  0  0  0  0  0  0
    4.4374    0.6897    0.0000 C   0  0  0  0  0  0  0  0  0  0  0  0
    3.2784   -0.5975    0.0000 C   0  0  0  0  0  0  0  0  0  0  0  0
    3.6942    1.3588    0.0000 C   0  0  0  0  0  0  0  0  0  0  0  0
    2.5352    0.0716    0.0000 C   0  0  0  0  0  0  0  0  0  0  0  0
    2.7431    1.0498    0.0000 C   0  0  0  0  0  0  0  0  0  0  0  0
   12.7566   -1.2771    0.0000 H   0  0  0  0  0  0  0  0  0  0  0  0
   12.3581   -0.5868    0.0000 H   0  0  0  0  0  0  0  0  0  0  0  0
   10.2019   -0.5868    0.0000 H   0  0  0  0  0  0  0  0  0  0  0  0
    9.8034   -1.2771    0.0000 H   0  0  0  0  0  0  0  0  0  0  0  0
   12.3990   -0.6186    0.0000 H   0  0  0  0  0  0  0  0  0  0  0  0
   12.6554    0.1705    0.0000 H   0  0  0  0  0  0  0  0  0  0  0  0
   12.3581   -2.7520    0.0000 H   0  0  0  0  0  0  0  0  0  0  0  0
   12.7566   -2.0618    0.0000 H   0  0  0  0  0  0  0  0  0  0  0  0
    9.8034   -2.0618    0.0000 H   0  0  0  0  0  0  0  0  0  0  0  0
   10.2019   -2.7520    0.0000 H   0  0  0  0  0  0  0  0  0  0  0  0
   10.8815   -3.1444    0.0000 H   0  0  0  0  0  0  0  0  0  0  0  0
   11.6786   -3.1444    0.0000 H   0  0  0  0  0  0  0  0  0  0  0  0
    9.2654    0.6602    0.0000 H   0  0  0  0  0  0  0  0  0  0  0  0
    8.4857    0.8259    0.0000 H   0  0  0  0  0  0  0  0  0  0  0  0
   12.9346    1.7562    0.0000 H   0  0  0  0  0  0  0  0  0  0  0  0
    9.6254    1.7562    0.0000 H   0  0  0  0  0  0  0  0  0  0  0  0
    7.7041   -1.6227    0.0000 H   0  0  0  0  0  0  0  0  0  0  0  0
    8.2375   -1.0303    0.0000 H   0  0  0  0  0  0  0  0  0  0  0  0
    7.5712    1.0203    0.0000 H   0  0  0  0  0  0  0  0  0  0  0  0
    6.7915    1.1860    0.0000 H   0  0  0  0  0  0  0  0  0  0  0  0
   12.1129    3.2052    0.0000 H   0  0  0  0  0  0  0  0  0  0  0  0
   10.4471    3.2052    0.0000 H   0  0  0  0  0  0  0  0  0  0  0  0
    6.1782   -1.6994    0.0000 H   0  0  0  0  0  0  0  0  0  0  0  0
    6.9578   -1.8651    0.0000 H   0  0  0  0  0  0  0  0  0  0  0  0
    6.0453    0.9435    0.0000 H   0  0  0  0  0  0  0  0  0  0  0  0
    5.5119    0.3512    0.0000 H   0  0  0  0  0  0  0  0  0  0  0  0
    4.4840   -1.3393    0.0000 H   0  0  0  0  0  0  0  0  0  0  0  0
    5.2636   -1.5050    0.0000 H   0  0  0  0  0  0  0  0  0  0  0  0
    5.0270    0.8813    0.0000 H   0  0  0  0  0  0  0  0  0  0  0  0
    3.1495   -1.2039    0.0000 H   0  0  0  0  0  0  0  0  0  0  0  0
    3.8231    1.9653    0.0000 H   0  0  0  0  0  0  0  0  0  0  0  0
    1.9456   -0.1199    0.0000 H   0  0  0  0  0  0  0  0  0  0  0  0
  1 31  1  0  0  0  0
  2 15  2  0  0  0  0
  3  6  1  0  0  0  0
  3 14  1  0  0  0  0
  3 15  1  0  0  0  0
  4 16  1  0  0  0  0
  4 19  1  0  0  0  0
  4 20  1  0  0  0  0
  5 23  1  0  0  0  0
  5 24  1  0  0  0  0
  5 25  1  0  0  0  0
  6  7  1  0  0  0  0
  6  8  1  0  0  0  0
  6  9  1  0  0  0  0
  7 10  1  0  0  0  0
  7 32  1  0  0  0  0
  7 33  1  0  0  0  0
  8 11  1  0  0  0  0
  8 34  1  0  0  0  0
  8 35  1  0  0  0  0
  9 13  1  0  0  0  0
  9 36  1  0  0  0  0
  9 37  1  0  0  0  0
 10 12  1  0  0  0  0
 10 38  1  0  0  0  0
 10 39  1  0  0  0  0
 11 12  1  0  0  0  0
 11 40  1  0  0  0  0
 11 41  1  0  0  0  0
 12 42  1  0  0  0  0
 12 43  1  0  0  0  0
 13 14  1  0  0  0  0
 13 17  2  0  0  0  0
 14 18  2  0  0  0  0
 15 16  1  0  0  0  0
 16 44  1  0  0  0  0
 16 45  1  0  0  0  0
 17 21  1  0  0  0  0
 17 46  1  0  0  0  0
 18 22  1  0  0  0  0
 18 47  1  0  0  0  0
 19 23  1  0  0  0  0
 19 48  1  0  0  0  0
 19 49  1  0  0  0  0
 20 24  1  0  0  0  0
 20 50  1  0  0  0  0
 20 51  1  0  0  0  0
 21 22  2  0  0  0  0
 21 52  1  0  0  0  0
 22 53  1  0  0  0  0
 23 54  1  0  0  0  0
 23 55  1  0  0  0  0
 24 56  1  0  0  0  0
 24 57  1  0  0  0  0
 25 26  1  0  0  0  0
 25 58  1  0  0  0  0
 25 59  1  0  0  0  0
 26 27  2  0  0  0  0
 26 28  1  0  0  0  0
 27 29  1  0  0  0  0
 27 60  1  0  0  0  0
 28 30  2  0  0  0  0
 28 61  1  0  0  0  0
 29 31  2  0  0  0  0
 29 62  1  0  0  0  0
 30 31  1  0  0  0  0
 30 63  1  0  0  0  0
M  END
> <PUBCHEM_COMPOUND_CID>
44336057

> <PUBCHEM_COMPOUND_CANONICALIZED>
1

> <PUBCHEM_CACTVS_COMPLEXITY>
606

> <PUBCHEM_CACTVS_HBOND_ACCEPTOR>
3

> <PUBCHEM_CACTVS_HBOND_DONOR>
0

> <PUBCHEM_CACTVS_ROTATABLE_BOND>
4

> <PUBCHEM_CACTVS_SUBSKEYS>
AAADcfB7IAAEAAAAAAAAAAAAAAAAAWAAAAA8YMEAAAAAAFgBQAAAHgIAAAAADIrBmCQwwIMAAACIAiVSUACCAAAhBwAIiACIZogIYCLBk7GUIAhghADIyAcQgMAOBAAAAAACAAAIAAAAAAQAAAAAAAAAAA==

> <PUBCHEM_IUPAC_OPENEYE_NAME>
2-[4-[(4-chlorophenyl)methyl]piperazin-1-yl]-1-spiro[cyclohexane-1,2'-indoline]-1'-yl-ethanone

> <PUBCHEM_IUPAC_CAS_NAME>
2-[4-[(4-chlorophenyl)methyl]-1-piperazinyl]-1-(1-spiro[3H-indole-2,1'-cyclohexane]yl)ethanone

> <PUBCHEM_IUPAC_NAME_MARKUP>
2-[4-[(4-chlorophenyl)methyl]piperazin-1-yl]-1-spiro[3<I>H</I>-indole-2,1&apos;-cyclohexane]-1-ylethanone

> <PUBCHEM_IUPAC_NAME>
2-[4-[(4-chlorophenyl)methyl]piperazin-1-yl]-1-spiro[3H-indole-2,1'-cyclohexane]-1-ylethanone

> <PUBCHEM_IUPAC_SYSTEMATIC_NAME>
2-[4-[(4-chlorophenyl)methyl]piperazin-1-yl]-1-spiro[3H-indole-2,1'-cyclohexane]-1-yl-ethanone

> <PUBCHEM_IUPAC_TRADITIONAL_NAME>
2-[4-(4-chlorobenzyl)piperazino]-1-spiro[cyclohexane-1,2'-indoline]-1'-yl-ethanone

> <PUBCHEM_IUPAC_INCHI>
InChI=1S/C26H32ClN3O/c27-23-10-8-21(9-11-23)19-28-14-16-29(17-15-28)20-25(31)30-24-7-3-2-6-22(24)18-26(30)12-4-1-5-13-26/h2-3,6-11H,1,4-5,12-20H2

> <PUBCHEM_IUPAC_INCHIKEY>
BXKFWSCAQBNCQC-UHFFFAOYSA-N

> <PUBCHEM_XLOGP3_AA>
4.9

> <PUBCHEM_EXACT_MASS>
437.2233903

> <PUBCHEM_MOLECULAR_FORMULA>
C26H32ClN3O

> <PUBCHEM_MOLECULAR_WEIGHT>
438.0

> <PUBCHEM_OPENEYE_CAN_SMILES>
C1CCC2(CC1)CC3=CC=CC=C3N2C(=O)CN4CCN(CC4)CC5=CC=C(C=C5)Cl

> <PUBCHEM_OPENEYE_ISO_SMILES>
C1CCC2(CC1)CC3=CC=CC=C3N2C(=O)CN4CCN(CC4)CC5=CC=C(C=C5)Cl

> <PUBCHEM_CACTVS_TPSA>
26.8

> <PUBCHEM_MONOISOTOPIC_WEIGHT>
437.2233903

> <PUBCHEM_TOTAL_CHARGE>
0

> <PUBCHEM_HEAVY_ATOM_COUNT>
31

> <PUBCHEM_ATOM_DEF_STEREO_COUNT>
0

> <PUBCHEM_ATOM_UDEF_STEREO_COUNT>
0

> <PUBCHEM_BOND_DEF_STEREO_COUNT>
0

> <PUBCHEM_BOND_UDEF_STEREO_COUNT>
0

> <PUBCHEM_ISOTOPIC_ATOM_COUNT>
0

> <PUBCHEM_COMPONENT_COUNT>
1

> <PUBCHEM_CACTVS_TAUTO_COUNT>
-1

> <PUBCHEM_COORDINATE_TYPE>
1
5
255

> <PUBCHEM_BONDANNOTATIONS>
13  14  8
13  17  8
14  18  8
17  21  8
18  22  8
21  22  8
26  27  8
26  28  8
27  29  8
28  30  8
29  31  8
30  31  8

$$$$
