45259628
  -OEChem-09292322152D

 60 62  0     0  0  0  0  0  0999 V2000
    8.9319    7.7397    0.0000 Cl  0  0  0  0  0  0  0  0  0  0  0  0
    0.0000    2.6200    0.0000 F   0  0  0  0  0  0  0  0  0  0  0  0
    2.6551   10.2078    0.0000 O   0  0  0  0  0  0  0  0  0  0  0  0
    1.7320    5.6200    0.0000 N   0  0  0  0  0  0  0  0  0  0  0  0
    1.7320    3.6200    0.0000 N   0  0  0  0  0  0  0  0  0  0  0  0
    2.9641   11.1588    0.0000 N   0  0  0  0  0  0  0  0  0  0  0  0
    0.8660    5.1200    0.0000 C   0  0  0  0  0  0  0  0  0  0  0  0
    2.5981    5.1200    0.0000 C   0  0  0  0  0  0  0  0  0  0  0  0
    0.8660    4.1200    0.0000 C   0  0  0  0  0  0  0  0  0  0  0  0
    2.5981    4.1200    0.0000 C   0  0  0  0  0  0  0  0  0  0  0  0
    1.7320    6.6200    0.0000 C   0  0  0  0  0  0  0  0  0  0  0  0
    2.5981    7.1200    0.0000 C   0  0  0  0  0  0  0  0  0  0  0  0
    2.5981    8.1200    0.0000 C   0  0  0  0  0  0  0  0  0  0  0  0
    1.7320    2.6200    0.0000 C   0  0  0  0  0  0  0  0  0  0  0  0
    3.4641    8.6200    0.0000 C   0  0  0  0  0  0  0  0  0  0  0  0
    0.8660    2.1200    0.0000 C   0  0  0  0  0  0  0  0  0  0  0  0
    2.5981    2.1200    0.0000 C   0  0  0  0  0  0  0  0  0  0  0  0
    3.4641    9.6200    0.0000 C   0  0  0  0  0  0  0  0  0  0  0  0
    0.8660    1.1200    0.0000 C   0  0  0  0  0  0  0  0  0  0  0  0
    2.5981    1.1200    0.0000 C   0  0  0  0  0  0  0  0  0  0  0  0
    1.7320    0.6200    0.0000 C   0  0  0  0  0  0  0  0  0  0  0  0
    4.2731   10.2078    0.0000 C   0  0  0  0  0  0  0  0  0  0  0  0
    3.9641   11.1588    0.0000 C   0  0  0  0  0  0  0  0  0  0  0  0
    4.5519   11.9679    0.0000 C   0  0  0  0  0  0  0  0  0  0  0  0
    4.1452   12.8814    0.0000 C   0  0  0  0  0  0  0  0  0  0  0  0
    4.7329   13.6904    0.0000 C   0  0  0  0  0  0  0  0  0  0  0  0
    5.7275   13.5859    0.0000 C   0  0  0  0  0  0  0  0  0  0  0  0
    4.3262   14.6040    0.0000 C   0  0  0  0  0  0  0  0  0  0  0  0
    6.3152   14.3949    0.0000 C   0  0  0  0  0  0  0  0  0  0  0  0
    4.9140   15.4130    0.0000 C   0  0  0  0  0  0  0  0  0  0  0  0
    5.9085   15.3085    0.0000 C   0  0  0  0  0  0  0  0  0  0  0  0
    0.6540    5.7026    0.0000 H   0  0  0  0  0  0  0  0  0  0  0  0
    0.2554    5.0123    0.0000 H   0  0  0  0  0  0  0  0  0  0  0  0
    3.2087    5.0123    0.0000 H   0  0  0  0  0  0  0  0  0  0  0  0
    2.8101    5.7026    0.0000 H   0  0  0  0  0  0  0  0  0  0  0  0
    0.2554    4.2277    0.0000 H   0  0  0  0  0  0  0  0  0  0  0  0
    0.6540    3.5374    0.0000 H   0  0  0  0  0  0  0  0  0  0  0  0
    2.8101    3.5374    0.0000 H   0  0  0  0  0  0  0  0  0  0  0  0
    3.2087    4.2277    0.0000 H   0  0  0  0  0  0  0  0  0  0  0  0
    1.5200    7.2026    0.0000 H   0  0  0  0  0  0  0  0  0  0  0  0
    1.1215    6.5123    0.0000 H   0  0  0  0  0  0  0  0  0  0  0  0
    2.8101    6.5374    0.0000 H   0  0  0  0  0  0  0  0  0  0  0  0
    3.2087    7.2277    0.0000 H   0  0  0  0  0  0  0  0  0  0  0  0
    2.3860    8.7026    0.0000 H   0  0  0  0  0  0  0  0  0  0  0  0
    1.9875    8.0123    0.0000 H   0  0  0  0  0  0  0  0  0  0  0  0
    3.6762    8.0374    0.0000 H   0  0  0  0  0  0  0  0  0  0  0  0
    4.0747    8.7277    0.0000 H   0  0  0  0  0  0  0  0  0  0  0  0
    3.1350    2.4300    0.0000 H   0  0  0  0  0  0  0  0  0  0  0  0
    0.3291    0.8100    0.0000 H   0  0  0  0  0  0  0  0  0  0  0  0
    3.1350    0.8100    0.0000 H   0  0  0  0  0  0  0  0  0  0  0  0
    1.7320    0.0000    0.0000 H   0  0  0  0  0  0  0  0  0  0  0  0
    4.8628   10.0162    0.0000 H   0  0  0  0  0  0  0  0  0  0  0  0
    5.1685   11.9031    0.0000 H   0  0  0  0  0  0  0  0  0  0  0  0
    3.5286   12.9462    0.0000 H   0  0  0  0  0  0  0  0  0  0  0  0
    5.9796   13.0195    0.0000 H   0  0  0  0  0  0  0  0  0  0  0  0
    3.7096   14.6688    0.0000 H   0  0  0  0  0  0  0  0  0  0  0  0
    6.9318   14.3301    0.0000 H   0  0  0  0  0  0  0  0  0  0  0  0
    4.6618   15.9794    0.0000 H   0  0  0  0  0  0  0  0  0  0  0  0
    6.2729   15.8100    0.0000 H   0  0  0  0  0  0  0  0  0  0  0  0
    9.9319    7.7397    0.0000 H   0  0  0  0  0  0  0  0  0  0  0  0
  1 60  1  0  0  0  0
  2 16  1  0  0  0  0
  3  6  1  0  0  0  0
  3 18  1  0  0  0  0
  4  7  1  0  0  0  0
  4  8  1  0  0  0  0
  4 11  1  0  0  0  0
  5  9  1  0  0  0  0
  5 10  1  0  0  0  0
  5 14  1  0  0  0  0
  6 23  2  0  0  0  0
  7  9  1  0  0  0  0
  7 32  1  0  0  0  0
  7 33  1  0  0  0  0
  8 10  1  0  0  0  0
  8 34  1  0  0  0  0
  8 35  1  0  0  0  0
  9 36  1  0  0  0  0
  9 37  1  0  0  0  0
 10 38  1  0  0  0  0
 10 39  1  0  0  0  0
 11 12  1  0  0  0  0
 11 40  1  0  0  0  0
 11 41  1  0  0  0  0
 12 13  1  0  0  0  0
 12 42  1  0  0  0  0
 12 43  1  0  0  0  0
 13 15  1  0  0  0  0
 13 44  1  0  0  0  0
 13 45  1  0  0  0  0
 14 16  1  0  0  0  0
 14 17  2  0  0  0  0
 15 18  1  0  0  0  0
 15 46  1  0  0  0  0
 15 47  1  0  0  0  0
 16 19  2  0  0  0  0
 17 20  1  0  0  0  0
 17 48  1  0  0  0  0
 18 22  2  0  0  0  0
 19 21  1  0  0  0  0
 19 49  1  0  0  0  0
 20 21  2  0  0  0  0
 20 50  1  0  0  0  0
 21 51  1  0  0  0  0
 22 23  1  0  0  0  0
 22 52  1  0  0  0  0
 23 24  1  0  0  0  0
 24 25  2  0  0  0  0
 24 53  1  0  0  0  0
 25 26  1  0  0  0  0
 25 54  1  0  0  0  0
 26 27  2  0  0  0  0
 26 28  1  0  0  0  0
 27 29  1  0  0  0  0
 27 55  1  0  0  0  0
 28 30  2  0  0  0  0
 28 56  1  0  0  0  0
 29 31  2  0  0  0  0
 29 57  1  0  0  0  0
 30 31  1  0  0  0  0
 30 58  1  0  0  0  0
 31 59  1  0  0  0  0
M  END
> <PUBCHEM_COMPOUND_CID>
45259628

> <PUBCHEM_COMPOUND_CANONICALIZED>
1

> <PUBCHEM_CACTVS_COMPLEXITY>
517

> <PUBCHEM_CACTVS_HBOND_ACCEPTOR>
5

> <PUBCHEM_CACTVS_HBOND_DONOR>
1

> <PUBCHEM_CACTVS_ROTATABLE_BOND>
8

> <PUBCHEM_CACTVS_SUBSKEYS>
AAADceB7IQAEAAAAAAAAAAAAAAAAAWAAAAA8YIAAAAAAAAAB0AAAHwAEAAAADAzBngwwxJMQAACpA6RyQgCCAAAlIgAomCE+bNoIZjrAkZOUMYhmgBjIyUeYkYIOAAAAAAAAAAAAAAAAAAAAAAAAAAAAAA==

> <PUBCHEM_IUPAC_OPENEYE_NAME>
5-[4-[4-(2-fluorophenyl)piperazin-1-yl]butyl]-3-[(E)-styryl]isoxazole;hydrochloride

> <PUBCHEM_IUPAC_CAS_NAME>
5-[4-[4-(2-fluorophenyl)-1-piperazinyl]butyl]-3-[(E)-2-phenylethenyl]isoxazole;hydrochloride

> <PUBCHEM_IUPAC_NAME_MARKUP>
5-[4-[4-(2-fluorophenyl)piperazin-1-yl]butyl]-3-[(<I>E</I>)-2-phenylethenyl]-1,2-oxazole;hydrochloride

> <PUBCHEM_IUPAC_NAME>
5-[4-[4-(2-fluorophenyl)piperazin-1-yl]butyl]-3-[(E)-2-phenylethenyl]-1,2-oxazole;hydrochloride

> <PUBCHEM_IUPAC_SYSTEMATIC_NAME>
5-[4-[4-(2-fluorophenyl)piperazin-1-yl]butyl]-3-[(E)-2-phenylethenyl]-1,2-oxazole;hydrochloride

> <PUBCHEM_IUPAC_TRADITIONAL_NAME>
5-[4-[4-(2-fluorophenyl)piperazino]butyl]-3-[(E)-styryl]isoxazole;hydrochloride

> <PUBCHEM_IUPAC_INCHI>
InChI=1S/C25H28FN3O.ClH/c26-24-11-4-5-12-25(24)29-18-16-28(17-19-29)15-7-6-10-23-20-22(27-30-23)14-13-21-8-2-1-3-9-21;/h1-5,8-9,11-14,20H,6-7,10,15-19H2;1H/b14-13+;

> <PUBCHEM_IUPAC_INCHIKEY>
YXVMIHQPKNHWMO-IERUDJENSA-N

> <PUBCHEM_EXACT_MASS>
441.1983184

> <PUBCHEM_MOLECULAR_FORMULA>
C25H29ClFN3O

> <PUBCHEM_MOLECULAR_WEIGHT>
442.0

> <PUBCHEM_OPENEYE_CAN_SMILES>
C1CN(CCN1CCCCC2=CC(=NO2)C=CC3=CC=CC=C3)C4=CC=CC=C4F.Cl

> <PUBCHEM_OPENEYE_ISO_SMILES>
C1CN(CCN1CCCCC2=CC(=NO2)/C=C/C3=CC=CC=C3)C4=CC=CC=C4F.Cl

> <PUBCHEM_CACTVS_TPSA>
32.5

> <PUBCHEM_MONOISOTOPIC_WEIGHT>
441.1983184

> <PUBCHEM_TOTAL_CHARGE>
0

> <PUBCHEM_HEAVY_ATOM_COUNT>
31

> <PUBCHEM_ATOM_DEF_STEREO_COUNT>
0

> <PUBCHEM_ATOM_UDEF_STEREO_COUNT>
0

> <PUBCHEM_BOND_DEF_STEREO_COUNT>
1

> <PUBCHEM_BOND_UDEF_STEREO_COUNT>
0

> <PUBCHEM_ISOTOPIC_ATOM_COUNT>
0

> <PUBCHEM_COMPONENT_COUNT>
2

> <PUBCHEM_CACTVS_TAUTO_COUNT>
-1

> <PUBCHEM_COORDINATE_TYPE>
1
5
255

> <PUBCHEM_BONDANNOTATIONS>
14  16  8
14  17  8
16  19  8
17  20  8
18  22  8
19  21  8
20  21  8
22  23  8
26  27  8
26  28  8
27  29  8
28  30  8
29  31  8
3  18  8
3  6  8
30  31  8
6  23  8

$$$$
