137636581
  -OEChem-09292322402D

 79 83  0     0  0  0  0  0  0999 V2000
   10.8308    8.7867    0.0000 S   0  0  0  0  0  0  0  0  0  0  0  0
    3.2018   13.2988    0.0000 O   0  0  0  0  0  0  0  0  0  0  0  0
    6.6659    5.2988    0.0000 O   0  0  0  0  0  0  0  0  0  0  0  0
   10.8308    9.7867    0.0000 O   0  5  0  0  0  0  0  0  0  0  0  0
   11.8308    8.7867    0.0000 O   0  0  0  0  0  0  0  0  0  0  0  0
    9.8308    8.7867    0.0000 O   0  0  0  0  0  0  0  0  0  0  0  0
    3.2018   11.2988    0.0000 N   0  3  0  0  0  0  0  0  0  0  0  0
    3.2018    9.2988    0.0000 N   0  0  0  0  0  0  0  0  0  0  0  0
    4.9338    5.2988    0.0000 N   0  0  0  0  0  0  0  0  0  0  0  0
    4.9951    3.2152    0.0000 N   0  0  0  0  0  0  0  0  0  0  0  0
    5.2998    2.2690    0.0000 N   0  0  0  0  0  0  0  0  0  0  0  0
    4.0678   10.7988    0.0000 C   0  0  0  0  0  0  0  0  0  0  0  0
    2.3358   10.7988    0.0000 C   0  0  0  0  0  0  0  0  0  0  0  0
    4.0678   11.7988    0.0000 C   0  0  0  0  0  0  0  0  0  0  0  0
    4.0678    9.7988    0.0000 C   0  0  0  0  0  0  0  0  0  0  0  0
    2.3358    9.7988    0.0000 C   0  0  0  0  0  0  0  0  0  0  0  0
    2.3358   11.7988    0.0000 C   0  0  0  0  0  0  0  0  0  0  0  0
    4.0678   12.7988    0.0000 C   0  0  0  0  0  0  0  0  0  0  0  0
    3.2018    8.2988    0.0000 C   0  0  0  0  0  0  0  0  0  0  0  0
    2.3358   12.7988    0.0000 C   0  0  0  0  0  0  0  0  0  0  0  0
    1.4418   11.2642    0.0000 C   0  0  0  0  0  0  0  0  0  0  0  0
    4.0678    7.7988    0.0000 C   0  0  0  0  0  0  0  0  0  0  0  0
    1.4418   13.3335    0.0000 C   0  0  0  0  0  0  0  0  0  0  0  0
    0.5357   11.7780    0.0000 C   0  0  0  0  0  0  0  0  0  0  0  0
    4.0678    6.7988    0.0000 C   0  0  0  0  0  0  0  0  0  0  0  0
    0.5357   12.8196    0.0000 C   0  0  0  0  0  0  0  0  0  0  0  0
    4.9338    6.2988    0.0000 C   0  0  0  0  0  0  0  0  0  0  0  0
    5.7998    4.7988    0.0000 C   0  0  0  0  0  0  0  0  0  0  0  0
    5.7998    3.7988    0.0000 C   0  0  0  0  0  0  0  0  0  0  0  0
    6.6046    3.2152    0.0000 C   0  0  0  0  0  0  0  0  0  0  0  0
    6.2998    2.2690    0.0000 C   0  0  0  0  0  0  0  0  0  0  0  0
    6.7998    1.4030    0.0000 C   0  0  0  0  0  0  0  0  0  0  0  0
    4.7998    1.4030    0.0000 C   0  0  0  0  0  0  0  0  0  0  0  0
    6.2998    0.5369    0.0000 C   0  0  0  0  0  0  0  0  0  0  0  0
    5.2998    0.5369    0.0000 C   0  0  0  0  0  0  0  0  0  0  0  0
   10.8308    7.7867    0.0000 C   0  0  0  0  0  0  0  0  0  0  0  0
   10.8308    5.7867    0.0000 C   0  0  0  0  0  0  0  0  0  0  0  0
   11.6969    7.2867    0.0000 C   0  0  0  0  0  0  0  0  0  0  0  0
    9.9648    7.2867    0.0000 C   0  0  0  0  0  0  0  0  0  0  0  0
   11.6969    6.2867    0.0000 C   0  0  0  0  0  0  0  0  0  0  0  0
    9.9648    6.2867    0.0000 C   0  0  0  0  0  0  0  0  0  0  0  0
   10.8308    4.7867    0.0000 C   0  0  0  0  0  0  0  0  0  0  0  0
    4.6784   10.6912    0.0000 H   0  0  0  0  0  0  0  0  0  0  0  0
    4.2798   11.3814    0.0000 H   0  0  0  0  0  0  0  0  0  0  0  0
    2.1237   11.3814    0.0000 H   0  0  0  0  0  0  0  0  0  0  0  0
    1.7252   10.6912    0.0000 H   0  0  0  0  0  0  0  0  0  0  0  0
    4.2798   11.2162    0.0000 H   0  0  0  0  0  0  0  0  0  0  0  0
    4.6784   11.9065    0.0000 H   0  0  0  0  0  0  0  0  0  0  0  0
    4.2798    9.2162    0.0000 H   0  0  0  0  0  0  0  0  0  0  0  0
    4.6784    9.9065    0.0000 H   0  0  0  0  0  0  0  0  0  0  0  0
    1.7252    9.9065    0.0000 H   0  0  0  0  0  0  0  0  0  0  0  0
    2.1237    9.2162    0.0000 H   0  0  0  0  0  0  0  0  0  0  0  0
    4.6784   12.6912    0.0000 H   0  0  0  0  0  0  0  0  0  0  0  0
    4.2798   13.3814    0.0000 H   0  0  0  0  0  0  0  0  0  0  0  0
    2.5912    8.4065    0.0000 H   0  0  0  0  0  0  0  0  0  0  0  0
    2.9897    7.7162    0.0000 H   0  0  0  0  0  0  0  0  0  0  0  0
    1.4490   10.6442    0.0000 H   0  0  0  0  0  0  0  0  0  0  0  0
    4.6784    7.6912    0.0000 H   0  0  0  0  0  0  0  0  0  0  0  0
    4.2798    8.3814    0.0000 H   0  0  0  0  0  0  0  0  0  0  0  0
    1.4490   13.9534    0.0000 H   0  0  0  0  0  0  0  0  0  0  0  0
    0.0000   11.4659    0.0000 H   0  0  0  0  0  0  0  0  0  0  0  0
    3.4572    6.9065    0.0000 H   0  0  0  0  0  0  0  0  0  0  0  0
    3.8557    6.2162    0.0000 H   0  0  0  0  0  0  0  0  0  0  0  0
    0.0000   13.1317    0.0000 H   0  0  0  0  0  0  0  0  0  0  0  0
    5.5444    6.1912    0.0000 H   0  0  0  0  0  0  0  0  0  0  0  0
    5.1459    6.8814    0.0000 H   0  0  0  0  0  0  0  0  0  0  0  0
    4.3969    4.9888    0.0000 H   0  0  0  0  0  0  0  0  0  0  0  0
    7.1939    3.4078    0.0000 H   0  0  0  0  0  0  0  0  0  0  0  0
    7.4198    1.4030    0.0000 H   0  0  0  0  0  0  0  0  0  0  0  0
    4.1798    1.4030    0.0000 H   0  0  0  0  0  0  0  0  0  0  0  0
    6.6098    0.0000    0.0000 H   0  0  0  0  0  0  0  0  0  0  0  0
    4.9898    0.0000    0.0000 H   0  0  0  0  0  0  0  0  0  0  0  0
   12.2338    7.5967    0.0000 H   0  0  0  0  0  0  0  0  0  0  0  0
    9.4279    7.5967    0.0000 H   0  0  0  0  0  0  0  0  0  0  0  0
   12.2338    5.9767    0.0000 H   0  0  0  0  0  0  0  0  0  0  0  0
    9.4279    5.9767    0.0000 H   0  0  0  0  0  0  0  0  0  0  0  0
   10.2108    4.7867    0.0000 H   0  0  0  0  0  0  0  0  0  0  0  0
   10.8308    4.1667    0.0000 H   0  0  0  0  0  0  0  0  0  0  0  0
   11.4508    4.7867    0.0000 H   0  0  0  0  0  0  0  0  0  0  0  0
  1  4  1  0  0  0  0
  1  5  2  0  0  0  0
  1  6  2  0  0  0  0
  1 36  1  0  0  0  0
  2 18  1  0  0  0  0
  2 20  1  0  0  0  0
  3 28  2  0  0  0  0
  7 12  1  0  0  0  0
  7 13  1  0  0  0  0
  7 14  1  0  0  0  0
  7 17  1  0  0  0  0
  8 15  1  0  0  0  0
  8 16  1  0  0  0  0
  8 19  1  0  0  0  0
  9 27  1  0  0  0  0
  9 28  1  0  0  0  0
  9 67  1  0  0  0  0
 10 11  1  0  0  0  0
 10 29  2  0  0  0  0
 11 31  1  0  0  0  0
 11 33  1  0  0  0  0
 12 15  1  0  0  0  0
 12 43  1  0  0  0  0
 12 44  1  0  0  0  0
 13 16  1  0  0  0  0
 13 45  1  0  0  0  0
 13 46  1  0  0  0  0
 14 18  1  0  0  0  0
 14 47  1  0  0  0  0
 14 48  1  0  0  0  0
 15 49  1  0  0  0  0
 15 50  1  0  0  0  0
 16 51  1  0  0  0  0
 16 52  1  0  0  0  0
 17 20  1  0  0  0  0
 17 21  2  0  0  0  0
 18 53  1  0  0  0  0
 18 54  1  0  0  0  0
 19 22  1  0  0  0  0
 19 55  1  0  0  0  0
 19 56  1  0  0  0  0
 20 23  2  0  0  0  0
 21 24  1  0  0  0  0
 21 57  1  0  0  0  0
 22 25  1  0  0  0  0
 22 58  1  0  0  0  0
 22 59  1  0  0  0  0
 23 26  1  0  0  0  0
 23 60  1  0  0  0  0
 24 26  2  0  0  0  0
 24 61  1  0  0  0  0
 25 27  1  0  0  0  0
 25 62  1  0  0  0  0
 25 63  1  0  0  0  0
 26 64  1  0  0  0  0
 27 65  1  0  0  0  0
 27 66  1  0  0  0  0
 28 29  1  0  0  0  0
 29 30  1  0  0  0  0
 30 31  2  0  0  0  0
 30 68  1  0  0  0  0
 31 32  1  0  0  0  0
 32 34  2  0  0  0  0
 32 69  1  0  0  0  0
 33 35  2  0  0  0  0
 33 70  1  0  0  0  0
 34 35  1  0  0  0  0
 34 71  1  0  0  0  0
 35 72  1  0  0  0  0
 36 38  2  0  0  0  0
 36 39  1  0  0  0  0
 37 40  2  0  0  0  0
 37 41  1  0  0  0  0
 37 42  1  0  0  0  0
 38 40  1  0  0  0  0
 38 73  1  0  0  0  0
 39 41  2  0  0  0  0
 39 74  1  0  0  0  0
 40 75  1  0  0  0  0
 41 76  1  0  0  0  0
 42 77  1  0  0  0  0
 42 78  1  0  0  0  0
 42 79  1  0  0  0  0
M  CHG  2   4  -1   7   1
M  END
> <PUBCHEM_COMPOUND_CID>
137636581

> <PUBCHEM_COMPOUND_CANONICALIZED>
1

> <PUBCHEM_CACTVS_COMPLEXITY>
802

> <PUBCHEM_CACTVS_HBOND_ACCEPTOR>
7

> <PUBCHEM_CACTVS_HBOND_DONOR>
1

> <PUBCHEM_CACTVS_ROTATABLE_BOND>
6

> <PUBCHEM_CACTVS_SUBSKEYS>
AAADcfB7uABAAAAAAAAAAAAAAAAAAWAAAAA8eLECAAAAAFix9AAAHgQYAAAADAzh3gY+x7PIFAKqAzV3VHDSjGA3oiAY2Lm/bNgOZvLE9duXvSjk3hHY6YecyICOEAAAAAAAEAAgAAAAAAAgAAAAAAAAAA==

> <PUBCHEM_IUPAC_OPENEYE_NAME>
4-methylbenzenesulfonate;N-(4-spiro[1,4-diazinan-4-ium-4,4'-2,3-dihydro-1,4-benzoxazin-4-ium]-1-ylbutyl)pyrazolo[1,5-a]pyridine-2-carboxamide

> <PUBCHEM_IUPAC_CAS_NAME>
4-methylbenzenesulfonate;N-[4-(1-spiro[1,4-diazinan-4-ium-4,4'-2,3-dihydro-1,4-benzoxazin-4-ium]yl)butyl]-2-pyrazolo[1,5-a]pyridinecarboxamide

> <PUBCHEM_IUPAC_NAME_MARKUP>
4-methylbenzenesulfonate;<I>N</I>-(4-spiro[1,4-diazinan-4-ium-4,4&apos;-2,3-dihydro-1,4-benzoxazin-4-ium]-1-ylbutyl)pyrazolo[1,5-a]pyridine-2-carboxamide

> <PUBCHEM_IUPAC_NAME>
4-methylbenzenesulfonate;N-(4-spiro[1,4-diazinan-4-ium-4,4'-2,3-dihydro-1,4-benzoxazin-4-ium]-1-ylbutyl)pyrazolo[1,5-a]pyridine-2-carboxamide

> <PUBCHEM_IUPAC_SYSTEMATIC_NAME>
4-methylbenzenesulfonate;N-(4-spiro[1,4-diazinan-4-ium-4,4'-2,3-dihydro-1,4-benzoxazin-4-ium]-1-ylbutyl)pyrazolo[1,5-a]pyridine-2-carboxamide

> <PUBCHEM_IUPAC_TRADITIONAL_NAME>
N-(4-spiro[1,4-diazinan-4-ium-4,4'-2,3-dihydro-1,4-benzoxazin-4-ium]-1-ylbutyl)pyrazolo[1,5-a]pyridine-2-carboxamide;tosylate

> <PUBCHEM_IUPAC_INCHI>
InChI=1S/C24H29N5O2.C7H8O3S/c30-24(21-19-20-7-3-5-12-28(20)26-21)25-10-4-6-11-27-13-15-29(16-14-27)17-18-31-23-9-2-1-8-22(23)29;1-6-2-4-7(5-3-6)11(8,9)10/h1-3,5,7-9,12,19H,4,6,10-11,13-18H2;2-5H,1H3,(H,8,9,10)

> <PUBCHEM_IUPAC_INCHIKEY>
XPGSJIUQAJGTDW-UHFFFAOYSA-N

> <PUBCHEM_EXACT_MASS>
591.25154047

> <PUBCHEM_MOLECULAR_FORMULA>
C31H37N5O5S

> <PUBCHEM_MOLECULAR_WEIGHT>
591.7

> <PUBCHEM_OPENEYE_CAN_SMILES>
CC1=CC=C(C=C1)S(=O)(=O)[O-].C1C[N+]2(CCN1CCCCNC(=O)C3=NN4C=CC=CC4=C3)CCOC5=CC=CC=C25

> <PUBCHEM_OPENEYE_ISO_SMILES>
CC1=CC=C(C=C1)S(=O)(=O)[O-].C1C[N+]2(CCN1CCCCNC(=O)C3=NN4C=CC=CC4=C3)CCOC5=CC=CC=C25

> <PUBCHEM_CACTVS_TPSA>
124

> <PUBCHEM_MONOISOTOPIC_WEIGHT>
591.25154047

> <PUBCHEM_TOTAL_CHARGE>
0

> <PUBCHEM_HEAVY_ATOM_COUNT>
42

> <PUBCHEM_ATOM_DEF_STEREO_COUNT>
0

> <PUBCHEM_ATOM_UDEF_STEREO_COUNT>
0

> <PUBCHEM_BOND_DEF_STEREO_COUNT>
0

> <PUBCHEM_BOND_UDEF_STEREO_COUNT>
0

> <PUBCHEM_ISOTOPIC_ATOM_COUNT>
0

> <PUBCHEM_COMPONENT_COUNT>
2

> <PUBCHEM_CACTVS_TAUTO_COUNT>
-1

> <PUBCHEM_COORDINATE_TYPE>
1
5
255

> <PUBCHEM_BONDANNOTATIONS>
10  11  8
10  29  8
11  31  8
11  33  8
17  20  8
17  21  8
20  23  8
21  24  8
23  26  8
24  26  8
29  30  8
30  31  8
31  32  8
32  34  8
33  35  8
34  35  8
36  38  8
36  39  8
37  40  8
37  41  8
38  40  8
39  41  8

$$$$
