14950449
  -OEChem-09292322122D

 51 54  0     1  0  0  0  0  0999 V2000
    2.6200   -3.1393    0.0000 O   0  0  0  0  0  0  0  0  0  0  0  0
    7.3940    1.2960    0.0000 N   0  0  3  0  0  0  0  0  0  0  0  0
    4.7036   -3.0780    0.0000 N   0  0  0  0  0  0  0  0  0  0  0  0
    2.6200   -1.4072    0.0000 N   0  0  0  0  0  0  0  0  0  0  0  0
    8.2542    2.7993    0.0000 C   0  0  0  0  0  0  0  0  0  0  0  0
    8.7509    3.6673    0.0000 C   0  0  0  0  0  0  0  0  0  0  0  0
    7.7509    3.6634    0.0000 C   0  0  0  0  0  0  0  0  0  0  0  0
    8.2581    1.7994    0.0000 C   0  0  0  0  0  0  0  0  0  0  0  0
    7.3978    0.2960    0.0000 C   0  0  2  0  0  0  0  0  0  0  0  0
    8.2999   -0.2248    0.0000 C   0  0  0  0  0  0  0  0  0  0  0  0
    6.4998   -0.2317    0.0000 C   0  0  0  0  0  0  0  0  0  0  0  0
    6.5260    1.7927    0.0000 C   0  0  0  0  0  0  0  0  0  0  0  0
    8.2919   -1.2664    0.0000 C   0  0  0  0  0  0  0  0  0  0  0  0
    6.5158   -1.2732    0.0000 C   0  0  0  0  0  0  0  0  0  0  0  0
    7.3819   -1.7732    0.0000 C   0  0  0  0  0  0  0  0  0  0  0  0
    5.6498   -1.7732    0.0000 C   0  0  0  0  0  0  0  0  0  0  0  0
    6.5222    2.7927    0.0000 C   0  0  0  0  0  0  0  0  0  0  0  0
    7.3819   -2.7732    0.0000 C   0  0  0  0  0  0  0  0  0  0  0  0
    5.6498   -2.7732    0.0000 C   0  0  0  0  0  0  0  0  0  0  0  0
    6.5158   -3.2732    0.0000 C   0  0  0  0  0  0  0  0  0  0  0  0
    4.7036   -1.4685    0.0000 C   0  0  0  0  0  0  0  0  0  0  0  0
    5.6542    3.2893    0.0000 C   0  0  0  0  0  0  0  0  0  0  0  0
    4.1200   -2.2732    0.0000 C   0  0  0  0  0  0  0  0  0  0  0  0
    3.1200   -2.2732    0.0000 C   0  0  0  0  0  0  0  0  0  0  0  0
    7.6560    2.6366    0.0000 H   0  0  0  0  0  0  0  0  0  0  0  0
    9.3343    3.4575    0.0000 H   0  0  0  0  0  0  0  0  0  0  0  0
    8.8562    4.2783    0.0000 H   0  0  0  0  0  0  0  0  0  0  0  0
    7.6409    4.2736    0.0000 H   0  0  0  0  0  0  0  0  0  0  0  0
    7.1691    3.4491    0.0000 H   0  0  0  0  0  0  0  0  0  0  0  0
    8.4724    1.2176    0.0000 H   0  0  0  0  0  0  0  0  0  0  0  0
    8.8682    1.9094    0.0000 H   0  0  0  0  0  0  0  0  0  0  0  0
    6.8591    0.6029    0.0000 H   0  0  0  0  0  0  0  0  0  0  0  0
    8.9099   -0.3356    0.0000 H   0  0  0  0  0  0  0  0  0  0  0  0
    8.5135    0.3573    0.0000 H   0  0  0  0  0  0  0  0  0  0  0  0
    6.2818    0.3487    0.0000 H   0  0  0  0  0  0  0  0  0  0  0  0
    5.8906   -0.3472    0.0000 H   0  0  0  0  0  0  0  0  0  0  0  0
    5.9150    1.8980    0.0000 H   0  0  0  0  0  0  0  0  0  0  0  0
    6.3162    1.2092    0.0000 H   0  0  0  0  0  0  0  0  0  0  0  0
    8.4964   -1.8517    0.0000 H   0  0  0  0  0  0  0  0  0  0  0  0
    8.9035   -1.1650    0.0000 H   0  0  0  0  0  0  0  0  0  0  0  0
    7.1332    2.6874    0.0000 H   0  0  0  0  0  0  0  0  0  0  0  0
    6.7320    3.3761    0.0000 H   0  0  0  0  0  0  0  0  0  0  0  0
    7.9188   -3.0832    0.0000 H   0  0  0  0  0  0  0  0  0  0  0  0
    6.5158   -3.8932    0.0000 H   0  0  0  0  0  0  0  0  0  0  0  0
    4.5110   -0.8792    0.0000 H   0  0  0  0  0  0  0  0  0  0  0  0
    5.9622    3.8274    0.0000 H   0  0  0  0  0  0  0  0  0  0  0  0
    5.1161    3.5972    0.0000 H   0  0  0  0  0  0  0  0  0  0  0  0
    5.3463    2.7512    0.0000 H   0  0  0  0  0  0  0  0  0  0  0  0
    4.5110   -3.6673    0.0000 H   0  0  0  0  0  0  0  0  0  0  0  0
    2.0000   -1.4072    0.0000 H   0  0  0  0  0  0  0  0  0  0  0  0
    2.9300   -0.8703    0.0000 H   0  0  0  0  0  0  0  0  0  0  0  0
  1 24  2  0  0  0  0
  2  8  1  0  0  0  0
  9  2  1  6  0  0  0
  2 12  1  0  0  0  0
  3 19  1  0  0  0  0
  3 23  1  0  0  0  0
  3 49  1  0  0  0  0
  4 24  1  0  0  0  0
  4 50  1  0  0  0  0
  4 51  1  0  0  0  0
  5  6  1  0  0  0  0
  5  7  1  0  0  0  0
  5  8  1  0  0  0  0
  5 25  1  0  0  0  0
  6  7  1  0  0  0  0
  6 26  1  0  0  0  0
  6 27  1  0  0  0  0
  7 28  1  0  0  0  0
  7 29  1  0  0  0  0
  8 30  1  0  0  0  0
  8 31  1  0  0  0  0
  9 10  1  0  0  0  0
  9 11  1  0  0  0  0
  9 32  1  0  0  0  0
 10 13  1  0  0  0  0
 10 33  1  0  0  0  0
 10 34  1  0  0  0  0
 11 14  1  0  0  0  0
 11 35  1  0  0  0  0
 11 36  1  0  0  0  0
 12 17  1  0  0  0  0
 12 37  1  0  0  0  0
 12 38  1  0  0  0  0
 13 15  1  0  0  0  0
 13 39  1  0  0  0  0
 13 40  1  0  0  0  0
 14 15  2  0  0  0  0
 14 16  1  0  0  0  0
 15 18  1  0  0  0  0
 16 19  2  0  0  0  0
 16 21  1  0  0  0  0
 17 22  1  0  0  0  0
 17 41  1  0  0  0  0
 17 42  1  0  0  0  0
 18 20  2  0  0  0  0
 18 43  1  0  0  0  0
 19 20  1  0  0  0  0
 20 44  1  0  0  0  0
 21 23  2  0  0  0  0
 21 45  1  0  0  0  0
 22 46  1  0  0  0  0
 22 47  1  0  0  0  0
 22 48  1  0  0  0  0
 23 24  1  0  0  0  0
M  END
> <PUBCHEM_COMPOUND_CID>
14950449

> <PUBCHEM_COMPOUND_CANONICALIZED>
1

> <PUBCHEM_CACTVS_COMPLEXITY>
464

> <PUBCHEM_CACTVS_HBOND_ACCEPTOR>
2

> <PUBCHEM_CACTVS_HBOND_DONOR>
2

> <PUBCHEM_CACTVS_ROTATABLE_BOND>
6

> <PUBCHEM_CACTVS_SUBSKEYS>
AAADceB7IAAAAAAAAAAAAAAAGAAAAWAAAAAwYAAAAAAAAFjB8AAAHgAQAAAADSjBngQywPPJkACoAyVyVACCgCAnAiAImSG4ZNgIYPLAlbGUIQhgkADIyYcYicCeiAACQAASAAAQAASAACQAAAAAAAAAAA==

> <PUBCHEM_IUPAC_OPENEYE_NAME>
(8R)-8-[cyclopropylmethyl(propyl)amino]-6,7,8,9-tetrahydro-3H-benzo[e]indole-2-carboxamide

> <PUBCHEM_IUPAC_CAS_NAME>
(8R)-8-[cyclopropylmethyl(propyl)amino]-6,7,8,9-tetrahydro-3H-benzo[e]indole-2-carboxamide

> <PUBCHEM_IUPAC_NAME_MARKUP>
(8<I>R</I>)-8-[cyclopropylmethyl(propyl)amino]-6,7,8,9-tetrahydro-3<I>H</I>-benzo[e]indole-2-carboxamide

> <PUBCHEM_IUPAC_NAME>
(8R)-8-[cyclopropylmethyl(propyl)amino]-6,7,8,9-tetrahydro-3H-benzo[e]indole-2-carboxamide

> <PUBCHEM_IUPAC_SYSTEMATIC_NAME>
(8R)-8-[cyclopropylmethyl(propyl)amino]-6,7,8,9-tetrahydro-3H-benzo[e]indole-2-carboxamide

> <PUBCHEM_IUPAC_TRADITIONAL_NAME>
(8R)-8-[cyclopropylmethyl(propyl)amino]-6,7,8,9-tetrahydro-3H-benz[e]indole-2-carboxamide

> <PUBCHEM_IUPAC_INCHI>
InChI=1S/C20H27N3O/c1-2-9-23(12-13-3-4-13)15-7-5-14-6-8-18-17(16(14)10-15)11-19(22-18)20(21)24/h6,8,11,13,15,22H,2-5,7,9-10,12H2,1H3,(H2,21,24)/t15-/m1/s1

> <PUBCHEM_IUPAC_INCHIKEY>
YQWYZWBIKZPITE-OAHLLOKOSA-N

> <PUBCHEM_XLOGP3_AA>
3.7

> <PUBCHEM_EXACT_MASS>
325.215412493

> <PUBCHEM_MOLECULAR_FORMULA>
C20H27N3O

> <PUBCHEM_MOLECULAR_WEIGHT>
325.4

> <PUBCHEM_OPENEYE_CAN_SMILES>
CCCN(CC1CC1)C2CCC3=C(C2)C4=C(C=C3)NC(=C4)C(=O)N

> <PUBCHEM_OPENEYE_ISO_SMILES>
CCCN(CC1CC1)[C@@H]2CCC3=C(C2)C4=C(C=C3)NC(=C4)C(=O)N

> <PUBCHEM_CACTVS_TPSA>
62.1

> <PUBCHEM_MONOISOTOPIC_WEIGHT>
325.215412493

> <PUBCHEM_TOTAL_CHARGE>
0

> <PUBCHEM_HEAVY_ATOM_COUNT>
24

> <PUBCHEM_ATOM_DEF_STEREO_COUNT>
1

> <PUBCHEM_ATOM_UDEF_STEREO_COUNT>
0

> <PUBCHEM_BOND_DEF_STEREO_COUNT>
0

> <PUBCHEM_BOND_UDEF_STEREO_COUNT>
0

> <PUBCHEM_ISOTOPIC_ATOM_COUNT>
0

> <PUBCHEM_COMPONENT_COUNT>
1

> <PUBCHEM_CACTVS_TAUTO_COUNT>
-1

> <PUBCHEM_COORDINATE_TYPE>
1
5
255

> <PUBCHEM_BONDANNOTATIONS>
14  15  8
14  16  8
15  18  8
16  19  8
16  21  8
18  20  8
19  20  8
9  2  6
21  23  8
3  19  8
3  23  8

$$$$
