45486364
  -OEChem-09292322292D

 72 76  0     1  0  0  0  0  0999 V2000
   13.3267   -2.5123    0.0000 O   0  0  0  0  0  0  0  0  0  0  0  0
    9.8462    0.5223    0.0000 N   0  0  3  0  0  0  0  0  0  0  0  0
    7.2482    0.0223    0.0000 N   0  0  0  0  0  0  0  0  0  0  0  0
    5.5161   -0.9777    0.0000 N   0  0  0  0  0  0  0  0  0  0  0  0
    2.9180   -2.4777    0.0000 N   0  0  0  0  0  0  0  0  0  0  0  0
   10.7123    0.0223    0.0000 C   0  0  1  0  0  0  0  0  0  0  0  0
   10.7123   -0.9777    0.0000 C   0  0  0  0  0  0  0  0  0  0  0  0
   11.5783    0.5223    0.0000 C   0  0  0  0  0  0  0  0  0  0  0  0
    8.9802    0.0223    0.0000 C   0  0  0  0  0  0  0  0  0  0  0  0
   11.5783   -1.4777    0.0000 C   0  0  0  0  0  0  0  0  0  0  0  0
    8.1142    0.5223    0.0000 C   0  0  0  0  0  0  0  0  0  0  0  0
   12.4443    0.0223    0.0000 C   0  0  0  0  0  0  0  0  0  0  0  0
   12.4443   -0.9777    0.0000 C   0  0  0  0  0  0  0  0  0  0  0  0
    9.8462    1.5223    0.0000 C   0  0  0  0  0  0  0  0  0  0  0  0
    6.3821    0.5223    0.0000 C   0  0  0  0  0  0  0  0  0  0  0  0
    7.2482   -0.9777    0.0000 C   0  0  0  0  0  0  0  0  0  0  0  0
    5.5161    0.0223    0.0000 C   0  0  0  0  0  0  0  0  0  0  0  0
    6.3821   -1.4777    0.0000 C   0  0  0  0  0  0  0  0  0  0  0  0
    8.9802    2.0223    0.0000 C   0  0  0  0  0  0  0  0  0  0  0  0
   13.3383   -1.5124    0.0000 C   0  0  0  0  0  0  0  0  0  0  0  0
   13.3383    0.5569    0.0000 C   0  0  0  0  0  0  0  0  0  0  0  0
    4.6501   -1.4777    0.0000 C   0  0  0  0  0  0  0  0  0  0  0  0
   14.2443   -0.9985    0.0000 C   0  0  0  0  0  0  0  0  0  0  0  0
   14.2443    0.0431    0.0000 C   0  0  0  0  0  0  0  0  0  0  0  0
    8.9802    3.0223    0.0000 C   0  0  0  0  0  0  0  0  0  0  0  0
    3.7841   -0.9777    0.0000 C   0  0  0  0  0  0  0  0  0  0  0  0
    4.6501   -2.4777    0.0000 C   0  0  0  0  0  0  0  0  0  0  0  0
    2.9180   -1.4777    0.0000 C   0  0  0  0  0  0  0  0  0  0  0  0
    3.8001    0.0638    0.0000 C   0  0  0  0  0  0  0  0  0  0  0  0
    3.7841   -2.9777    0.0000 C   0  0  0  0  0  0  0  0  0  0  0  0
   14.1869   -3.0223    0.0000 C   0  0  0  0  0  0  0  0  0  0  0  0
    2.0080   -0.9709    0.0000 C   0  0  0  0  0  0  0  0  0  0  0  0
    2.9021    0.5915    0.0000 C   0  0  0  0  0  0  0  0  0  0  0  0
    2.0000    0.0707    0.0000 C   0  0  0  0  0  0  0  0  0  0  0  0
   10.1753   -0.2877    0.0000 H   0  0  0  0  0  0  0  0  0  0  0  0
   10.1017   -0.8701    0.0000 H   0  0  0  0  0  0  0  0  0  0  0  0
   10.5002   -1.5603    0.0000 H   0  0  0  0  0  0  0  0  0  0  0  0
   11.9768    0.9972    0.0000 H   0  0  0  0  0  0  0  0  0  0  0  0
   11.1798    0.9972    0.0000 H   0  0  0  0  0  0  0  0  0  0  0  0
    8.5817   -0.4527    0.0000 H   0  0  0  0  0  0  0  0  0  0  0  0
    9.3787   -0.4527    0.0000 H   0  0  0  0  0  0  0  0  0  0  0  0
   11.1798   -1.9527    0.0000 H   0  0  0  0  0  0  0  0  0  0  0  0
   11.9768   -1.9527    0.0000 H   0  0  0  0  0  0  0  0  0  0  0  0
    8.5127    0.9972    0.0000 H   0  0  0  0  0  0  0  0  0  0  0  0
    7.7156    0.9972    0.0000 H   0  0  0  0  0  0  0  0  0  0  0  0
   10.4568    1.4146    0.0000 H   0  0  0  0  0  0  0  0  0  0  0  0
   10.0583    2.1049    0.0000 H   0  0  0  0  0  0  0  0  0  0  0  0
    6.7807    0.9972    0.0000 H   0  0  0  0  0  0  0  0  0  0  0  0
    5.9836    0.9972    0.0000 H   0  0  0  0  0  0  0  0  0  0  0  0
    7.4602   -1.5603    0.0000 H   0  0  0  0  0  0  0  0  0  0  0  0
    7.8587   -0.8701    0.0000 H   0  0  0  0  0  0  0  0  0  0  0  0
    5.3040    0.6049    0.0000 H   0  0  0  0  0  0  0  0  0  0  0  0
    4.9055   -0.0854    0.0000 H   0  0  0  0  0  0  0  0  0  0  0  0
    5.9836   -1.9527    0.0000 H   0  0  0  0  0  0  0  0  0  0  0  0
    6.7807   -1.9527    0.0000 H   0  0  0  0  0  0  0  0  0  0  0  0
    8.3696    2.1300    0.0000 H   0  0  0  0  0  0  0  0  0  0  0  0
    8.7682    1.4397    0.0000 H   0  0  0  0  0  0  0  0  0  0  0  0
   13.3311    1.1769    0.0000 H   0  0  0  0  0  0  0  0  0  0  0  0
   14.7801   -1.3106    0.0000 H   0  0  0  0  0  0  0  0  0  0  0  0
   14.7801    0.3552    0.0000 H   0  0  0  0  0  0  0  0  0  0  0  0
    9.6002    3.0223    0.0000 H   0  0  0  0  0  0  0  0  0  0  0  0
    8.9802    3.6423    0.0000 H   0  0  0  0  0  0  0  0  0  0  0  0
    8.3602    3.0223    0.0000 H   0  0  0  0  0  0  0  0  0  0  0  0
    5.1870   -2.7877    0.0000 H   0  0  0  0  0  0  0  0  0  0  0  0
    4.3406    0.3676    0.0000 H   0  0  0  0  0  0  0  0  0  0  0  0
    3.7841   -3.5977    0.0000 H   0  0  0  0  0  0  0  0  0  0  0  0
   13.8707   -3.5556    0.0000 H   0  0  0  0  0  0  0  0  0  0  0  0
   14.7202   -3.3385    0.0000 H   0  0  0  0  0  0  0  0  0  0  0  0
   14.5031   -2.4890    0.0000 H   0  0  0  0  0  0  0  0  0  0  0  0
    1.4747   -1.2870    0.0000 H   0  0  0  0  0  0  0  0  0  0  0  0
    2.9045    1.2115    0.0000 H   0  0  0  0  0  0  0  0  0  0  0  0
    1.4619    0.3787    0.0000 H   0  0  0  0  0  0  0  0  0  0  0  0
  1 20  1  0  0  0  0
  1 31  1  0  0  0  0
  6  2  1  6  0  0  0
  2  9  1  0  0  0  0
  2 14  1  0  0  0  0
  3 11  1  0  0  0  0
  3 15  1  0  0  0  0
  3 16  1  0  0  0  0
  4 17  1  0  0  0  0
  4 18  1  0  0  0  0
  4 22  1  0  0  0  0
  5 28  1  0  0  0  0
  5 30  2  0  0  0  0
  6  7  1  0  0  0  0
  6  8  1  0  0  0  0
  6 35  1  0  0  0  0
  7 10  1  0  0  0  0
  7 36  1  0  0  0  0
  7 37  1  0  0  0  0
  8 12  1  0  0  0  0
  8 38  1  0  0  0  0
  8 39  1  0  0  0  0
  9 11  1  0  0  0  0
  9 40  1  0  0  0  0
  9 41  1  0  0  0  0
 10 13  1  0  0  0  0
 10 42  1  0  0  0  0
 10 43  1  0  0  0  0
 11 44  1  0  0  0  0
 11 45  1  0  0  0  0
 12 13  2  0  0  0  0
 12 21  1  0  0  0  0
 13 20  1  0  0  0  0
 14 19  1  0  0  0  0
 14 46  1  0  0  0  0
 14 47  1  0  0  0  0
 15 17  1  0  0  0  0
 15 48  1  0  0  0  0
 15 49  1  0  0  0  0
 16 18  1  0  0  0  0
 16 50  1  0  0  0  0
 16 51  1  0  0  0  0
 17 52  1  0  0  0  0
 17 53  1  0  0  0  0
 18 54  1  0  0  0  0
 18 55  1  0  0  0  0
 19 25  1  0  0  0  0
 19 56  1  0  0  0  0
 19 57  1  0  0  0  0
 20 23  2  0  0  0  0
 21 24  2  0  0  0  0
 21 58  1  0  0  0  0
 22 26  1  0  0  0  0
 22 27  2  0  0  0  0
 23 24  1  0  0  0  0
 23 59  1  0  0  0  0
 24 60  1  0  0  0  0
 25 61  1  0  0  0  0
 25 62  1  0  0  0  0
 25 63  1  0  0  0  0
 26 28  1  0  0  0  0
 26 29  2  0  0  0  0
 27 30  1  0  0  0  0
 27 64  1  0  0  0  0
 28 32  2  0  0  0  0
 29 33  1  0  0  0  0
 29 65  1  0  0  0  0
 30 66  1  0  0  0  0
 31 67  1  0  0  0  0
 31 68  1  0  0  0  0
 31 69  1  0  0  0  0
 32 34  1  0  0  0  0
 32 70  1  0  0  0  0
 33 34  2  0  0  0  0
 33 71  1  0  0  0  0
 34 72  1  0  0  0  0
M  END
> <PUBCHEM_COMPOUND_CID>
45486364

> <PUBCHEM_COMPOUND_CANONICALIZED>
1

> <PUBCHEM_CACTVS_COMPLEXITY>
609

> <PUBCHEM_CACTVS_HBOND_ACCEPTOR>
5

> <PUBCHEM_CACTVS_HBOND_DONOR>
0

> <PUBCHEM_CACTVS_ROTATABLE_BOND>
8

> <PUBCHEM_CACTVS_SUBSKEYS>
AAADcfB7oAAAAAAAAAAAAAAAAAAAAAAAAAA8eMECAAAAAADx9AAAHgAAAAAADCzBngY+xvMIFACgAzRnRACCiCAxIiAI2CA+bJgMZuLE8duUNChkwBHI6AeQ0LMOgAABAAAaAAAQAAKAADQAAAAAAAAAAA==

> <PUBCHEM_IUPAC_OPENEYE_NAME>
(2S)-5-methoxy-N-propyl-N-[2-[4-(4-quinolyl)piperazin-1-yl]ethyl]tetralin-2-amine

> <PUBCHEM_IUPAC_CAS_NAME>
(2S)-5-methoxy-N-propyl-N-[2-[4-(4-quinolinyl)-1-piperazinyl]ethyl]-1,2,3,4-tetrahydronaphthalen-2-amine

> <PUBCHEM_IUPAC_NAME_MARKUP>
(2<I>S</I>)-5-methoxy-<I>N</I>-propyl-<I>N</I>-[2-(4-quinolin-4-ylpiperazin-1-yl)ethyl]-1,2,3,4-tetrahydronaphthalen-2-amine

> <PUBCHEM_IUPAC_NAME>
(2S)-5-methoxy-N-propyl-N-[2-(4-quinolin-4-ylpiperazin-1-yl)ethyl]-1,2,3,4-tetrahydronaphthalen-2-amine

> <PUBCHEM_IUPAC_SYSTEMATIC_NAME>
(2S)-5-methoxy-N-propyl-N-[2-(4-quinolin-4-ylpiperazin-1-yl)ethyl]-1,2,3,4-tetrahydronaphthalen-2-amine

> <PUBCHEM_IUPAC_TRADITIONAL_NAME>
[(2S)-5-methoxytetralin-2-yl]-propyl-[2-[4-(4-quinolyl)piperazino]ethyl]amine

> <PUBCHEM_IUPAC_INCHI>
InChI=1S/C29H38N4O/c1-3-15-32(24-11-12-25-23(22-24)7-6-10-29(25)34-2)19-16-31-17-20-33(21-18-31)28-13-14-30-27-9-5-4-8-26(27)28/h4-10,13-14,24H,3,11-12,15-22H2,1-2H3/t24-/m0/s1

> <PUBCHEM_IUPAC_INCHIKEY>
ZLYZZQJTZBMSMX-DEOSSOPVSA-N

> <PUBCHEM_XLOGP3_AA>
5.4

> <PUBCHEM_EXACT_MASS>
458.30456185

> <PUBCHEM_MOLECULAR_FORMULA>
C29H38N4O

> <PUBCHEM_MOLECULAR_WEIGHT>
458.6

> <PUBCHEM_OPENEYE_CAN_SMILES>
CCCN(CCN1CCN(CC1)C2=CC=NC3=CC=CC=C32)C4CCC5=C(C4)C=CC=C5OC

> <PUBCHEM_OPENEYE_ISO_SMILES>
CCCN(CCN1CCN(CC1)C2=CC=NC3=CC=CC=C32)[C@H]4CCC5=C(C4)C=CC=C5OC

> <PUBCHEM_CACTVS_TPSA>
31.8

> <PUBCHEM_MONOISOTOPIC_WEIGHT>
458.30456185

> <PUBCHEM_TOTAL_CHARGE>
0

> <PUBCHEM_HEAVY_ATOM_COUNT>
34

> <PUBCHEM_ATOM_DEF_STEREO_COUNT>
1

> <PUBCHEM_ATOM_UDEF_STEREO_COUNT>
0

> <PUBCHEM_BOND_DEF_STEREO_COUNT>
0

> <PUBCHEM_BOND_UDEF_STEREO_COUNT>
0

> <PUBCHEM_ISOTOPIC_ATOM_COUNT>
0

> <PUBCHEM_COMPONENT_COUNT>
1

> <PUBCHEM_CACTVS_TAUTO_COUNT>
-1

> <PUBCHEM_COORDINATE_TYPE>
1
5
255

> <PUBCHEM_BONDANNOTATIONS>
12  13  8
12  21  8
13  20  8
6  2  6
20  23  8
21  24  8
22  26  8
22  27  8
23  24  8
26  28  8
26  29  8
27  30  8
28  32  8
29  33  8
32  34  8
33  34  8
5  28  8
5  30  8

$$$$
