72699532
  -OEChem-09292322382D

 64 68  0     0  0  0  0  0  0999 V2000
    9.1206    4.2292    0.0000 S   0  0  0  0  0  0  0  0  0  0  0  0
    4.6783   -5.3969    0.0000 S   0  0  0  0  0  0  0  0  0  0  0  0
    8.9144    5.2077    0.0000 O   0  0  0  0  0  0  0  0  0  0  0  0
    9.3268    3.2507    0.0000 O   0  0  0  0  0  0  0  0  0  0  0  0
    5.6103   -0.9359    0.0000 N   0  0  0  0  0  0  0  0  0  0  0  0
    8.1421    4.0230    0.0000 N   0  0  0  0  0  0  0  0  0  0  0  0
    4.9889   -2.8369    0.0000 N   0  0  0  0  0  0  0  0  0  0  0  0
    5.2619   -4.5921    0.0000 N   0  0  0  0  0  0  0  0  0  0  0  0
   11.3883    5.5921    0.0000 N   0  0  0  0  0  0  0  0  0  0  0  0
    7.2101    1.1714    0.0000 C   0  0  0  0  0  0  0  0  0  0  0  0
    6.5422    1.9157    0.0000 C   0  0  0  0  0  0  0  0  0  0  0  0
    8.1886    1.3776    0.0000 C   0  0  0  0  0  0  0  0  0  0  0  0
    7.8314    3.0724    0.0000 C   0  0  0  0  0  0  0  0  0  0  0  0
    6.8529    2.8662    0.0000 C   0  0  0  0  0  0  0  0  0  0  0  0
    8.4993    2.3282    0.0000 C   0  0  0  0  0  0  0  0  0  0  0  0
    6.8994    0.2209    0.0000 C   0  0  0  0  0  0  0  0  0  0  0  0
    5.9209    0.0147    0.0000 C   0  0  0  0  0  0  0  0  0  0  0  0
    4.6318   -1.1421    0.0000 C   0  0  0  0  0  0  0  0  0  0  0  0
    6.2781   -1.6802    0.0000 C   0  0  0  0  0  0  0  0  0  0  0  0
    4.3211   -2.0926    0.0000 C   0  0  0  0  0  0  0  0  0  0  0  0
    5.9674   -2.6307    0.0000 C   0  0  0  0  0  0  0  0  0  0  0  0
    4.6783   -3.7874    0.0000 C   0  0  0  0  0  0  0  0  0  0  0  0
   10.0991    4.4354    0.0000 C   0  0  0  0  0  0  0  0  0  0  0  0
    3.7320   -4.0921    0.0000 C   0  0  0  0  0  0  0  0  0  0  0  0
    3.7320   -5.0921    0.0000 C   0  0  0  0  0  0  0  0  0  0  0  0
   10.7669    3.6911    0.0000 C   0  0  0  0  0  0  0  0  0  0  0  0
   10.4097    5.3859    0.0000 C   0  0  0  0  0  0  0  0  0  0  0  0
    2.8660   -3.5922    0.0000 C   0  0  0  0  0  0  0  0  0  0  0  0
    2.8660   -5.5921    0.0000 C   0  0  0  0  0  0  0  0  0  0  0  0
   11.7454    3.8973    0.0000 C   0  0  0  0  0  0  0  0  0  0  0  0
    2.0000   -4.0921    0.0000 C   0  0  0  0  0  0  0  0  0  0  0  0
    2.0000   -5.0921    0.0000 C   0  0  0  0  0  0  0  0  0  0  0  0
   12.0561    4.8478    0.0000 C   0  0  0  0  0  0  0  0  0  0  0  0
    7.6242    0.7099    0.0000 H   0  0  0  0  0  0  0  0  0  0  0  0
    5.9953    2.2077    0.0000 H   0  0  0  0  0  0  0  0  0  0  0  0
    6.1597    1.4278    0.0000 H   0  0  0  0  0  0  0  0  0  0  0  0
    8.2092    0.7580    0.0000 H   0  0  0  0  0  0  0  0  0  0  0  0
    8.8024    1.2903    0.0000 H   0  0  0  0  0  0  0  0  0  0  0  0
    8.4381    3.2003    0.0000 H   0  0  0  0  0  0  0  0  0  0  0  0
    6.8323    3.4859    0.0000 H   0  0  0  0  0  0  0  0  0  0  0  0
    6.2391    2.9536    0.0000 H   0  0  0  0  0  0  0  0  0  0  0  0
    9.0462    2.0361    0.0000 H   0  0  0  0  0  0  0  0  0  0  0  0
    8.8818    2.8160    0.0000 H   0  0  0  0  0  0  0  0  0  0  0  0
    6.9200   -0.3988    0.0000 H   0  0  0  0  0  0  0  0  0  0  0  0
    7.5132    0.1335    0.0000 H   0  0  0  0  0  0  0  0  0  0  0  0
    5.9004    0.6343    0.0000 H   0  0  0  0  0  0  0  0  0  0  0  0
    5.3071    0.1020    0.0000 H   0  0  0  0  0  0  0  0  0  0  0  0
    7.7280    4.4844    0.0000 H   0  0  0  0  0  0  0  0  0  0  0  0
    4.6112   -0.5224    0.0000 H   0  0  0  0  0  0  0  0  0  0  0  0
    4.0179   -1.0547    0.0000 H   0  0  0  0  0  0  0  0  0  0  0  0
    6.8250   -1.9722    0.0000 H   0  0  0  0  0  0  0  0  0  0  0  0
    6.6607   -1.1922    0.0000 H   0  0  0  0  0  0  0  0  0  0  0  0
    3.7742   -1.8006    0.0000 H   0  0  0  0  0  0  0  0  0  0  0  0
    3.9385   -2.5805    0.0000 H   0  0  0  0  0  0  0  0  0  0  0  0
    5.9880   -3.2503    0.0000 H   0  0  0  0  0  0  0  0  0  0  0  0
    6.5812   -2.7180    0.0000 H   0  0  0  0  0  0  0  0  0  0  0  0
   10.5743    3.1018    0.0000 H   0  0  0  0  0  0  0  0  0  0  0  0
    9.9957    5.8474    0.0000 H   0  0  0  0  0  0  0  0  0  0  0  0
    2.8660   -2.9722    0.0000 H   0  0  0  0  0  0  0  0  0  0  0  0
    2.8660   -6.2121    0.0000 H   0  0  0  0  0  0  0  0  0  0  0  0
   12.1595    3.4359    0.0000 H   0  0  0  0  0  0  0  0  0  0  0  0
    1.4631   -3.7822    0.0000 H   0  0  0  0  0  0  0  0  0  0  0  0
    1.4631   -5.4021    0.0000 H   0  0  0  0  0  0  0  0  0  0  0  0
   12.6628    4.9757    0.0000 H   0  0  0  0  0  0  0  0  0  0  0  0
  1  3  2  0  0  0  0
  1  4  2  0  0  0  0
  1  6  1  0  0  0  0
  1 23  1  0  0  0  0
  2  8  1  0  0  0  0
  2 25  1  0  0  0  0
  5 17  1  0  0  0  0
  5 18  1  0  0  0  0
  5 19  1  0  0  0  0
  6 13  1  0  0  0  0
  6 48  1  0  0  0  0
  7 20  1  0  0  0  0
  7 21  1  0  0  0  0
  7 22  1  0  0  0  0
  8 22  2  0  0  0  0
  9 27  1  0  0  0  0
  9 33  2  0  0  0  0
 10 11  1  0  0  0  0
 10 12  1  0  0  0  0
 10 16  1  0  0  0  0
 10 34  1  0  0  0  0
 11 14  1  0  0  0  0
 11 35  1  0  0  0  0
 11 36  1  0  0  0  0
 12 15  1  0  0  0  0
 12 37  1  0  0  0  0
 12 38  1  0  0  0  0
 13 14  1  0  0  0  0
 13 15  1  0  0  0  0
 13 39  1  0  0  0  0
 14 40  1  0  0  0  0
 14 41  1  0  0  0  0
 15 42  1  0  0  0  0
 15 43  1  0  0  0  0
 16 17  1  0  0  0  0
 16 44  1  0  0  0  0
 16 45  1  0  0  0  0
 17 46  1  0  0  0  0
 17 47  1  0  0  0  0
 18 20  1  0  0  0  0
 18 49  1  0  0  0  0
 18 50  1  0  0  0  0
 19 21  1  0  0  0  0
 19 51  1  0  0  0  0
 19 52  1  0  0  0  0
 20 53  1  0  0  0  0
 20 54  1  0  0  0  0
 21 55  1  0  0  0  0
 21 56  1  0  0  0  0
 22 24  1  0  0  0  0
 23 26  1  0  0  0  0
 23 27  2  0  0  0  0
 24 25  1  0  0  0  0
 24 28  2  0  0  0  0
 25 29  2  0  0  0  0
 26 30  2  0  0  0  0
 26 57  1  0  0  0  0
 27 58  1  0  0  0  0
 28 31  1  0  0  0  0
 28 59  1  0  0  0  0
 29 32  1  0  0  0  0
 29 60  1  0  0  0  0
 30 33  1  0  0  0  0
 30 61  1  0  0  0  0
 31 32  2  0  0  0  0
 31 62  1  0  0  0  0
 32 63  1  0  0  0  0
 33 64  1  0  0  0  0
M  END
> <PUBCHEM_COMPOUND_CID>
72699532

> <PUBCHEM_COMPOUND_CANONICALIZED>
1

> <PUBCHEM_CACTVS_COMPLEXITY>
717

> <PUBCHEM_CACTVS_HBOND_ACCEPTOR>
8

> <PUBCHEM_CACTVS_HBOND_DONOR>
1

> <PUBCHEM_CACTVS_ROTATABLE_BOND>
7

> <PUBCHEM_CACTVS_SUBSKEYS>
AAADceB7sABgAAAAAAAAAAAAAAAAAWAAAAA8eIEAAAAAAFgB/AAAHAQQQAAADSjBWgQ9sdNIEAKkAjJnZHDDgDAxAiBJ2Lw4ZJiIYOLAmZGUIAxgkALIyAcQgIAOAAAAAAAEAAAQAAAAAAgAAAAAAAAAAA==

> <PUBCHEM_IUPAC_OPENEYE_NAME>
N-[4-[2-[4-(1,2-benzothiazol-3-yl)piperazin-1-yl]ethyl]cyclohexyl]pyridine-3-sulfonamide

> <PUBCHEM_IUPAC_CAS_NAME>
N-[4-[2-[4-(1,2-benzothiazol-3-yl)-1-piperazinyl]ethyl]cyclohexyl]-3-pyridinesulfonamide

> <PUBCHEM_IUPAC_NAME_MARKUP>
<I>N</I>-[4-[2-[4-(1,2-benzothiazol-3-yl)piperazin-1-yl]ethyl]cyclohexyl]pyridine-3-sulfonamide

> <PUBCHEM_IUPAC_NAME>
N-[4-[2-[4-(1,2-benzothiazol-3-yl)piperazin-1-yl]ethyl]cyclohexyl]pyridine-3-sulfonamide

> <PUBCHEM_IUPAC_SYSTEMATIC_NAME>
N-[4-[2-[4-(1,2-benzothiazol-3-yl)piperazin-1-yl]ethyl]cyclohexyl]pyridine-3-sulfonamide

> <PUBCHEM_IUPAC_TRADITIONAL_NAME>
N-[4-[2-[4-(1,2-benzothiazol-3-yl)piperazino]ethyl]cyclohexyl]pyridine-3-sulfonamide

> <PUBCHEM_IUPAC_INCHI>
InChI=1S/C24H31N5O2S2/c30-33(31,21-4-3-12-25-18-21)27-20-9-7-19(8-10-20)11-13-28-14-16-29(17-15-28)24-22-5-1-2-6-23(22)32-26-24/h1-6,12,18-20,27H,7-11,13-17H2

> <PUBCHEM_IUPAC_INCHIKEY>
ZTKKAIYXNICILE-UHFFFAOYSA-N

> <PUBCHEM_XLOGP3_AA>
4.1

> <PUBCHEM_EXACT_MASS>
485.19191760

> <PUBCHEM_MOLECULAR_FORMULA>
C24H31N5O2S2

> <PUBCHEM_MOLECULAR_WEIGHT>
485.7

> <PUBCHEM_OPENEYE_CAN_SMILES>
C1CC(CCC1CCN2CCN(CC2)C3=NSC4=CC=CC=C43)NS(=O)(=O)C5=CN=CC=C5

> <PUBCHEM_OPENEYE_ISO_SMILES>
C1CC(CCC1CCN2CCN(CC2)C3=NSC4=CC=CC=C43)NS(=O)(=O)C5=CN=CC=C5

> <PUBCHEM_CACTVS_TPSA>
115

> <PUBCHEM_MONOISOTOPIC_WEIGHT>
485.19191760

> <PUBCHEM_TOTAL_CHARGE>
0

> <PUBCHEM_HEAVY_ATOM_COUNT>
33

> <PUBCHEM_ATOM_DEF_STEREO_COUNT>
0

> <PUBCHEM_ATOM_UDEF_STEREO_COUNT>
0

> <PUBCHEM_BOND_DEF_STEREO_COUNT>
0

> <PUBCHEM_BOND_UDEF_STEREO_COUNT>
0

> <PUBCHEM_ISOTOPIC_ATOM_COUNT>
0

> <PUBCHEM_COMPONENT_COUNT>
1

> <PUBCHEM_CACTVS_TAUTO_COUNT>
-1

> <PUBCHEM_COORDINATE_TYPE>
1
5
255

> <PUBCHEM_BONDANNOTATIONS>
2  25  8
2  8  8
22  24  8
23  26  8
23  27  8
24  25  8
24  28  8
25  29  8
26  30  8
28  31  8
29  32  8
30  33  8
31  32  8
8  22  8
9  27  8
9  33  8

$$$$
