57326889
  -OEChem-09292322072D

134141  0     0  0  0  0  0  0999 V2000
    8.7204    8.5770    0.0000 Cl  0  0  0  0  0  0  0  0  0  0  0  0
   16.5145   -8.5771    0.0000 Cl  0  0  0  0  0  0  0  0  0  0  0  0
    4.0170    5.7500    0.0000 O   0  0  0  0  0  0  0  0  0  0  0  0
   13.5431   -5.7500    0.0000 O   0  0  0  0  0  0  0  0  0  0  0  0
    3.9491   10.3416    0.0000 N   0  0  0  0  0  0  0  0  0  0  0  0
   11.7432  -10.3417    0.0000 N   0  0  0  0  0  0  0  0  0  0  0  0
    3.0814   12.1436    0.0000 N   0  0  0  0  0  0  0  0  0  0  0  0
   10.8754  -12.1436    0.0000 N   0  0  0  0  0  0  0  0  0  0  0  0
    4.8830    7.2500    0.0000 N   0  0  0  0  0  0  0  0  0  0  0  0
   12.6771   -7.2500    0.0000 N   0  0  0  0  0  0  0  0  0  0  0  0
    5.3830    9.4406    0.0000 N   0  0  0  0  0  0  0  0  0  0  0  0
   13.1771   -9.4407    0.0000 N   0  0  0  0  0  0  0  0  0  0  0  0
    4.5125   11.1679    0.0000 C   0  0  0  0  0  0  0  0  0  0  0  0
    2.9519   10.4164    0.0000 C   0  0  0  0  0  0  0  0  0  0  0  0
   12.3065  -11.1679    0.0000 C   0  0  0  0  0  0  0  0  0  0  0  0
   10.7460  -10.4164    0.0000 C   0  0  0  0  0  0  0  0  0  0  0  0
    4.0786   12.0688    0.0000 C   0  0  0  0  0  0  0  0  0  0  0  0
    2.5180   11.3173    0.0000 C   0  0  0  0  0  0  0  0  0  0  0  0
   11.8726  -12.0689    0.0000 C   0  0  0  0  0  0  0  0  0  0  0  0
   10.3121  -11.3173    0.0000 C   0  0  0  0  0  0  0  0  0  0  0  0
    8.3470    0.2500    0.0000 C   0  0  0  0  0  0  0  0  0  0  0  0
    9.2131   -0.2500    0.0000 C   0  0  0  0  0  0  0  0  0  0  0  0
    8.3470    1.2500    0.0000 C   0  0  0  0  0  0  0  0  0  0  0  0
    9.2131   -1.2500    0.0000 C   0  0  0  0  0  0  0  0  0  0  0  0
    7.4810    1.7500    0.0000 C   0  0  0  0  0  0  0  0  0  0  0  0
   10.0791   -1.7500    0.0000 C   0  0  0  0  0  0  0  0  0  0  0  0
    7.4810    2.7500    0.0000 C   0  0  0  0  0  0  0  0  0  0  0  0
   10.0791   -2.7500    0.0000 C   0  0  0  0  0  0  0  0  0  0  0  0
    6.6150    3.2500    0.0000 C   0  0  0  0  0  0  0  0  0  0  0  0
   10.9451   -3.2500    0.0000 C   0  0  0  0  0  0  0  0  0  0  0  0
    4.3830    9.4407    0.0000 C   0  0  0  0  0  0  0  0  0  0  0  0
   12.1771   -9.4407    0.0000 C   0  0  0  0  0  0  0  0  0  0  0  0
    6.6150    4.2500    0.0000 C   0  0  0  0  0  0  0  0  0  0  0  0
   10.9451   -4.2500    0.0000 C   0  0  0  0  0  0  0  0  0  0  0  0
    5.7490    4.7500    0.0000 C   0  0  0  0  0  0  0  0  0  0  0  0
   11.8111   -4.7500    0.0000 C   0  0  0  0  0  0  0  0  0  0  0  0
    3.7595    8.6588    0.0000 C   0  0  0  0  0  0  0  0  0  0  0  0
   11.5536   -8.6588    0.0000 C   0  0  0  0  0  0  0  0  0  0  0  0
    5.7490    5.7500    0.0000 C   0  0  0  0  0  0  0  0  0  0  0  0
   11.8111   -5.7500    0.0000 C   0  0  0  0  0  0  0  0  0  0  0  0
    3.9820    7.6839    0.0000 C   0  0  0  0  0  0  0  0  0  0  0  0
   11.7761   -7.6839    0.0000 C   0  0  0  0  0  0  0  0  0  0  0  0
    2.6475   13.0445    0.0000 C   0  0  0  0  0  0  0  0  0  0  0  0
   10.4415  -13.0445    0.0000 C   0  0  0  0  0  0  0  0  0  0  0  0
    4.8830    6.2500    0.0000 C   0  0  0  0  0  0  0  0  0  0  0  0
   12.6771   -6.2500    0.0000 C   0  0  0  0  0  0  0  0  0  0  0  0
    5.7840    7.6839    0.0000 C   0  0  0  0  0  0  0  0  0  0  0  0
   13.5781   -7.6839    0.0000 C   0  0  0  0  0  0  0  0  0  0  0  0
    6.0065    8.6588    0.0000 C   0  0  0  0  0  0  0  0  0  0  0  0
   13.8006   -8.6589    0.0000 C   0  0  0  0  0  0  0  0  0  0  0  0
    2.7690    8.9812    0.0000 C   0  0  0  0  0  0  0  0  0  0  0  0
   10.5631   -8.9812    0.0000 C   0  0  0  0  0  0  0  0  0  0  0  0
    3.2295    6.9637    0.0000 C   0  0  0  0  0  0  0  0  0  0  0  0
   11.0236   -6.9637    0.0000 C   0  0  0  0  0  0  0  0  0  0  0  0
    6.5365    6.9637    0.0000 C   0  0  0  0  0  0  0  0  0  0  0  0
   14.3306   -6.9638    0.0000 C   0  0  0  0  0  0  0  0  0  0  0  0
    2.0000    8.2786    0.0000 C   0  0  0  0  0  0  0  0  0  0  0  0
    9.7941   -8.2786    0.0000 C   0  0  0  0  0  0  0  0  0  0  0  0
    6.9970    8.9811    0.0000 C   0  0  0  0  0  0  0  0  0  0  0  0
   14.7911   -8.9812    0.0000 C   0  0  0  0  0  0  0  0  0  0  0  0
    2.2318    7.2631    0.0000 C   0  0  0  0  0  0  0  0  0  0  0  0
   10.0259   -7.2631    0.0000 C   0  0  0  0  0  0  0  0  0  0  0  0
    7.5342    7.2630    0.0000 C   0  0  0  0  0  0  0  0  0  0  0  0
   15.3283   -7.2631    0.0000 C   0  0  0  0  0  0  0  0  0  0  0  0
    7.7660    8.2786    0.0000 C   0  0  0  0  0  0  0  0  0  0  0  0
   15.5601   -8.2786    0.0000 C   0  0  0  0  0  0  0  0  0  0  0  0
    4.9563   10.7350    0.0000 H   0  0  0  0  0  0  0  0  0  0  0  0
    5.0159   11.5298    0.0000 H   0  0  0  0  0  0  0  0  0  0  0  0
    2.3551   10.2485    0.0000 H   0  0  0  0  0  0  0  0  0  0  0  0
    3.0137    9.7994    0.0000 H   0  0  0  0  0  0  0  0  0  0  0  0
   12.8099  -11.5298    0.0000 H   0  0  0  0  0  0  0  0  0  0  0  0
   12.7504  -10.7350    0.0000 H   0  0  0  0  0  0  0  0  0  0  0  0
   10.8077   -9.7994    0.0000 H   0  0  0  0  0  0  0  0  0  0  0  0
   10.1492  -10.2484    0.0000 H   0  0  0  0  0  0  0  0  0  0  0  0
    4.6754   12.2368    0.0000 H   0  0  0  0  0  0  0  0  0  0  0  0
    4.0168   12.6858    0.0000 H   0  0  0  0  0  0  0  0  0  0  0  0
    2.0742   11.7503    0.0000 H   0  0  0  0  0  0  0  0  0  0  0  0
    2.0146   10.9554    0.0000 H   0  0  0  0  0  0  0  0  0  0  0  0
   11.8109  -12.6858    0.0000 H   0  0  0  0  0  0  0  0  0  0  0  0
   12.4695  -12.2368    0.0000 H   0  0  0  0  0  0  0  0  0  0  0  0
    9.8087  -10.9554    0.0000 H   0  0  0  0  0  0  0  0  0  0  0  0
    9.8683  -11.7502    0.0000 H   0  0  0  0  0  0  0  0  0  0  0  0
    7.7365    0.3577    0.0000 H   0  0  0  0  0  0  0  0  0  0  0  0
    8.1350   -0.3326    0.0000 H   0  0  0  0  0  0  0  0  0  0  0  0
    9.8236   -0.3577    0.0000 H   0  0  0  0  0  0  0  0  0  0  0  0
    9.4251    0.3326    0.0000 H   0  0  0  0  0  0  0  0  0  0  0  0
    8.9576    1.1423    0.0000 H   0  0  0  0  0  0  0  0  0  0  0  0
    8.5591    1.8326    0.0000 H   0  0  0  0  0  0  0  0  0  0  0  0
    8.6025   -1.1424    0.0000 H   0  0  0  0  0  0  0  0  0  0  0  0
    9.0010   -1.8326    0.0000 H   0  0  0  0  0  0  0  0  0  0  0  0
    6.8704    1.8577    0.0000 H   0  0  0  0  0  0  0  0  0  0  0  0
    7.2690    1.1674    0.0000 H   0  0  0  0  0  0  0  0  0  0  0  0
   10.6897   -1.8577    0.0000 H   0  0  0  0  0  0  0  0  0  0  0  0
   10.2911   -1.1674    0.0000 H   0  0  0  0  0  0  0  0  0  0  0  0
    8.0916    2.6423    0.0000 H   0  0  0  0  0  0  0  0  0  0  0  0
    7.6931    3.3326    0.0000 H   0  0  0  0  0  0  0  0  0  0  0  0
    9.4685   -2.6424    0.0000 H   0  0  0  0  0  0  0  0  0  0  0  0
    9.8670   -3.3326    0.0000 H   0  0  0  0  0  0  0  0  0  0  0  0
    6.0044    3.3577    0.0000 H   0  0  0  0  0  0  0  0  0  0  0  0
    6.4030    2.6674    0.0000 H   0  0  0  0  0  0  0  0  0  0  0  0
   11.5557   -3.3577    0.0000 H   0  0  0  0  0  0  0  0  0  0  0  0
   11.1571   -2.6674    0.0000 H   0  0  0  0  0  0  0  0  0  0  0  0
    7.2256    4.1423    0.0000 H   0  0  0  0  0  0  0  0  0  0  0  0
    6.8271    4.8326    0.0000 H   0  0  0  0  0  0  0  0  0  0  0  0
   10.3345   -4.1424    0.0000 H   0  0  0  0  0  0  0  0  0  0  0  0
   10.7330   -4.8326    0.0000 H   0  0  0  0  0  0  0  0  0  0  0  0
    5.1384    4.8577    0.0000 H   0  0  0  0  0  0  0  0  0  0  0  0
    5.5369    4.1674    0.0000 H   0  0  0  0  0  0  0  0  0  0  0  0
   12.4217   -4.8577    0.0000 H   0  0  0  0  0  0  0  0  0  0  0  0
   12.0232   -4.1674    0.0000 H   0  0  0  0  0  0  0  0  0  0  0  0
    6.3596    5.6423    0.0000 H   0  0  0  0  0  0  0  0  0  0  0  0
    5.9611    6.3326    0.0000 H   0  0  0  0  0  0  0  0  0  0  0  0
   11.2005   -5.6424    0.0000 H   0  0  0  0  0  0  0  0  0  0  0  0
   11.5990   -6.3326    0.0000 H   0  0  0  0  0  0  0  0  0  0  0  0
    3.2061   13.3136    0.0000 H   0  0  0  0  0  0  0  0  0  0  0  0
    2.3785   13.6032    0.0000 H   0  0  0  0  0  0  0  0  0  0  0  0
    2.0889   12.7755    0.0000 H   0  0  0  0  0  0  0  0  0  0  0  0
    9.8829  -12.7755    0.0000 H   0  0  0  0  0  0  0  0  0  0  0  0
   10.1725  -13.6031    0.0000 H   0  0  0  0  0  0  0  0  0  0  0  0
   11.0001  -13.3136    0.0000 H   0  0  0  0  0  0  0  0  0  0  0  0
    2.6380    9.5872    0.0000 H   0  0  0  0  0  0  0  0  0  0  0  0
   10.4321   -9.5872    0.0000 H   0  0  0  0  0  0  0  0  0  0  0  0
    3.3744    6.3609    0.0000 H   0  0  0  0  0  0  0  0  0  0  0  0
   11.1685   -6.3609    0.0000 H   0  0  0  0  0  0  0  0  0  0  0  0
    6.3916    6.3609    0.0000 H   0  0  0  0  0  0  0  0  0  0  0  0
   14.1857   -6.3609    0.0000 H   0  0  0  0  0  0  0  0  0  0  0  0
    1.4083    8.4636    0.0000 H   0  0  0  0  0  0  0  0  0  0  0  0
    9.2024   -8.4636    0.0000 H   0  0  0  0  0  0  0  0  0  0  0  0
    7.1280    9.5872    0.0000 H   0  0  0  0  0  0  0  0  0  0  0  0
   14.9221   -9.5872    0.0000 H   0  0  0  0  0  0  0  0  0  0  0  0
    1.7789    6.8396    0.0000 H   0  0  0  0  0  0  0  0  0  0  0  0
    9.5730   -6.8396    0.0000 H   0  0  0  0  0  0  0  0  0  0  0  0
    7.9871    6.8396    0.0000 H   0  0  0  0  0  0  0  0  0  0  0  0
   15.7812   -6.8397    0.0000 H   0  0  0  0  0  0  0  0  0  0  0  0
  1 65  1  0  0  0  0
  2 66  1  0  0  0  0
  3 45  2  0  0  0  0
  4 46  2  0  0  0  0
  5 13  1  0  0  0  0
  5 14  1  0  0  0  0
  5 31  1  0  0  0  0
  6 15  1  0  0  0  0
  6 16  1  0  0  0  0
  6 32  1  0  0  0  0
  7 17  1  0  0  0  0
  7 18  1  0  0  0  0
  7 43  1  0  0  0  0
  8 19  1  0  0  0  0
  8 20  1  0  0  0  0
  8 44  1  0  0  0  0
  9 41  1  0  0  0  0
  9 45  1  0  0  0  0
  9 47  1  0  0  0  0
 10 42  1  0  0  0  0
 10 46  1  0  0  0  0
 10 48  1  0  0  0  0
 11 31  2  0  0  0  0
 11 49  1  0  0  0  0
 12 32  2  0  0  0  0
 12 50  1  0  0  0  0
 13 17  1  0  0  0  0
 13 67  1  0  0  0  0
 13 68  1  0  0  0  0
 14 18  1  0  0  0  0
 14 69  1  0  0  0  0
 14 70  1  0  0  0  0
 15 19  1  0  0  0  0
 15 71  1  0  0  0  0
 15 72  1  0  0  0  0
 16 20  1  0  0  0  0
 16 73  1  0  0  0  0
 16 74  1  0  0  0  0
 17 75  1  0  0  0  0
 17 76  1  0  0  0  0
 18 77  1  0  0  0  0
 18 78  1  0  0  0  0
 19 79  1  0  0  0  0
 19 80  1  0  0  0  0
 20 81  1  0  0  0  0
 20 82  1  0  0  0  0
 21 22  1  0  0  0  0
 21 23  1  0  0  0  0
 21 83  1  0  0  0  0
 21 84  1  0  0  0  0
 22 24  1  0  0  0  0
 22 85  1  0  0  0  0
 22 86  1  0  0  0  0
 23 25  1  0  0  0  0
 23 87  1  0  0  0  0
 23 88  1  0  0  0  0
 24 26  1  0  0  0  0
 24 89  1  0  0  0  0
 24 90  1  0  0  0  0
 25 27  1  0  0  0  0
 25 91  1  0  0  0  0
 25 92  1  0  0  0  0
 26 28  1  0  0  0  0
 26 93  1  0  0  0  0
 26 94  1  0  0  0  0
 27 29  1  0  0  0  0
 27 95  1  0  0  0  0
 27 96  1  0  0  0  0
 28 30  1  0  0  0  0
 28 97  1  0  0  0  0
 28 98  1  0  0  0  0
 29 33  1  0  0  0  0
 29 99  1  0  0  0  0
 29100  1  0  0  0  0
 30 34  1  0  0  0  0
 30101  1  0  0  0  0
 30102  1  0  0  0  0
 31 37  1  0  0  0  0
 32 38  1  0  0  0  0
 33 35  1  0  0  0  0
 33103  1  0  0  0  0
 33104  1  0  0  0  0
 34 36  1  0  0  0  0
 34105  1  0  0  0  0
 34106  1  0  0  0  0
 35 39  1  0  0  0  0
 35107  1  0  0  0  0
 35108  1  0  0  0  0
 36 40  1  0  0  0  0
 36109  1  0  0  0  0
 36110  1  0  0  0  0
 37 41  1  0  0  0  0
 37 51  2  0  0  0  0
 38 42  1  0  0  0  0
 38 52  2  0  0  0  0
 39 45  1  0  0  0  0
 39111  1  0  0  0  0
 39112  1  0  0  0  0
 40 46  1  0  0  0  0
 40113  1  0  0  0  0
 40114  1  0  0  0  0
 41 53  2  0  0  0  0
 42 54  2  0  0  0  0
 43115  1  0  0  0  0
 43116  1  0  0  0  0
 43117  1  0  0  0  0
 44118  1  0  0  0  0
 44119  1  0  0  0  0
 44120  1  0  0  0  0
 47 49  2  0  0  0  0
 47 55  1  0  0  0  0
 48 50  2  0  0  0  0
 48 56  1  0  0  0  0
 49 59  1  0  0  0  0
 50 60  1  0  0  0  0
 51 57  1  0  0  0  0
 51121  1  0  0  0  0
 52 58  1  0  0  0  0
 52122  1  0  0  0  0
 53 61  1  0  0  0  0
 53123  1  0  0  0  0
 54 62  1  0  0  0  0
 54124  1  0  0  0  0
 55 63  2  0  0  0  0
 55125  1  0  0  0  0
 56 64  2  0  0  0  0
 56126  1  0  0  0  0
 57 61  2  0  0  0  0
 57127  1  0  0  0  0
 58 62  2  0  0  0  0
 58128  1  0  0  0  0
 59 65  2  0  0  0  0
 59129  1  0  0  0  0
 60 66  2  0  0  0  0
 60130  1  0  0  0  0
 61131  1  0  0  0  0
 62132  1  0  0  0  0
 63 65  1  0  0  0  0
 63133  1  0  0  0  0
 64 66  1  0  0  0  0
 64134  1  0  0  0  0
M  END
> <PUBCHEM_COMPOUND_CID>
57326889

> <PUBCHEM_COMPOUND_CANONICALIZED>
1

> <PUBCHEM_CACTVS_COMPLEXITY>
1470

> <PUBCHEM_CACTVS_HBOND_ACCEPTOR>
6

> <PUBCHEM_CACTVS_HBOND_DONOR>
0

> <PUBCHEM_CACTVS_ROTATABLE_BOND>
19

> <PUBCHEM_CACTVS_SUBSKEYS>
AAADcfB/8AAGAAAAAAAAAAAAAAAAAAAAAAA8eMGCBAgAAAABVAAAHgIAAAAADArBmCQzwIMAAACoAidydACCAAEhBwAJiAEodpgIYPLB25GUIAhghADIyAcYiICOAABAAAICACAAAIAABAQAQAAAAAAAAA==

> <PUBCHEM_IUPAC_OPENEYE_NAME>
1,18-bis[3-chloro-6-(4-methylpiperazin-1-yl)benzo[b][1,4]benzodiazepin-11-yl]octadecane-1,18-dione

> <PUBCHEM_IUPAC_CAS_NAME>
1,18-bis[3-chloro-6-(4-methyl-1-piperazinyl)-11-benzo[b][1,4]benzodiazepinyl]octadecane-1,18-dione

> <PUBCHEM_IUPAC_NAME_MARKUP>
1,18-bis[3-chloro-6-(4-methylpiperazin-1-yl)benzo[b][1,4]benzodiazepin-11-yl]octadecane-1,18-dione

> <PUBCHEM_IUPAC_NAME>
1,18-bis[3-chloro-6-(4-methylpiperazin-1-yl)benzo[b][1,4]benzodiazepin-11-yl]octadecane-1,18-dione

> <PUBCHEM_IUPAC_SYSTEMATIC_NAME>
1,18-bis[3-chloranyl-6-(4-methylpiperazin-1-yl)benzo[b][1,4]benzodiazepin-11-yl]octadecane-1,18-dione

> <PUBCHEM_IUPAC_TRADITIONAL_NAME>
1,18-bis[3-chloro-6-(4-methylpiperazino)benzo[b][1,4]benzodiazepin-11-yl]octadecane-1,18-dione

> <PUBCHEM_IUPAC_INCHI>
InChI=1S/C54H68Cl2N8O2/c1-59-31-35-61(36-32-59)53-43-21-17-19-23-47(43)63(49-29-27-41(55)39-45(49)57-53)51(65)25-15-13-11-9-7-5-3-4-6-8-10-12-14-16-26-52(66)64-48-24-20-18-22-44(48)54(62-37-33-60(2)34-38-62)58-46-40-42(56)28-30-50(46)64/h17-24,27-30,39-40H,3-16,25-26,31-38H2,1-2H3

> <PUBCHEM_IUPAC_INCHIKEY>
NMCOZGNLSPASBC-UHFFFAOYSA-N

> <PUBCHEM_XLOGP3_AA>
11.8

> <PUBCHEM_EXACT_MASS>
930.4842288

> <PUBCHEM_MOLECULAR_FORMULA>
C54H68Cl2N8O2

> <PUBCHEM_MOLECULAR_WEIGHT>
932.1

> <PUBCHEM_OPENEYE_CAN_SMILES>
CN1CCN(CC1)C2=NC3=C(C=CC(=C3)Cl)N(C4=CC=CC=C42)C(=O)CCCCCCCCCCCCCCCCC(=O)N5C6=C(C=C(C=C6)Cl)N=C(C7=CC=CC=C75)N8CCN(CC8)C

> <PUBCHEM_OPENEYE_ISO_SMILES>
CN1CCN(CC1)C2=NC3=C(C=CC(=C3)Cl)N(C4=CC=CC=C42)C(=O)CCCCCCCCCCCCCCCCC(=O)N5C6=C(C=C(C=C6)Cl)N=C(C7=CC=CC=C75)N8CCN(CC8)C

> <PUBCHEM_CACTVS_TPSA>
78.3

> <PUBCHEM_MONOISOTOPIC_WEIGHT>
930.4842288

> <PUBCHEM_TOTAL_CHARGE>
0

> <PUBCHEM_HEAVY_ATOM_COUNT>
66

> <PUBCHEM_ATOM_DEF_STEREO_COUNT>
0

> <PUBCHEM_ATOM_UDEF_STEREO_COUNT>
0

> <PUBCHEM_BOND_DEF_STEREO_COUNT>
0

> <PUBCHEM_BOND_UDEF_STEREO_COUNT>
0

> <PUBCHEM_ISOTOPIC_ATOM_COUNT>
0

> <PUBCHEM_COMPONENT_COUNT>
1

> <PUBCHEM_CACTVS_TAUTO_COUNT>
-1

> <PUBCHEM_COORDINATE_TYPE>
1
5
255

> <PUBCHEM_BONDANNOTATIONS>
37  41  8
37  51  8
38  42  8
38  52  8
41  53  8
42  54  8
47  49  8
47  55  8
48  50  8
48  56  8
49  59  8
50  60  8
51  57  8
52  58  8
53  61  8
54  62  8
55  63  8
56  64  8
57  61  8
58  62  8
59  65  8
60  66  8
63  65  8
64  66  8

$$$$
