45263203
  -OEChem-09292322092D

 54 56  0     1  0  0  0  0  0999 V2000
    3.2510    0.9113    0.0000 Cl  0  0  0  0  0  0  0  0  0  0  0  0
    0.0000    5.4499    0.0000 Cl  0  0  0  0  0  0  0  0  0  0  0  0
    6.5820   11.4626    0.0000 F   0  0  0  0  0  0  0  0  0  0  0  0
    9.5820    7.9985    0.0000 O   0  0  0  0  0  0  0  0  0  0  0  0
    8.5820    4.5344    0.0000 N   0  0  0  0  0  0  0  0  0  0  0  0
    9.3187    3.5518    0.0000 C   0  0  3  0  0  0  0  0  0  0  0  0
    9.0598    2.5859    0.0000 C   0  0  3  0  0  0  0  0  0  0  0  0
   10.7176    3.0430    0.0000 C   0  0  0  0  0  0  0  0  0  0  0  0
   10.4588    2.0771    0.0000 C   0  0  0  0  0  0  0  0  0  0  0  0
    7.2854    3.2407    0.0000 C   0  0  0  0  0  0  0  0  0  0  0  0
    7.8388    1.7202    0.0000 C   0  0  0  0  0  0  0  0  0  0  0  0
    7.0098    2.2794    0.0000 C   0  0  0  0  0  0  0  0  0  0  0  0
    8.0820    5.4005    0.0000 C   0  0  0  0  0  0  0  0  0  0  0  0
    6.0701    1.9374    0.0000 C   0  0  0  0  0  0  0  0  0  0  0  0
    8.5820    6.2665    0.0000 C   0  0  0  0  0  0  0  0  0  0  0  0
    5.3040    2.5802    0.0000 C   0  0  0  0  0  0  0  0  0  0  0  0
    5.8964    0.9526    0.0000 C   0  0  0  0  0  0  0  0  0  0  0  0
    8.0820    7.1325    0.0000 C   0  0  0  0  0  0  0  0  0  0  0  0
    4.3644    2.2382    0.0000 C   0  0  0  0  0  0  0  0  0  0  0  0
    4.9568    0.6106    0.0000 C   0  0  0  0  0  0  0  0  0  0  0  0
    8.5820    7.9985    0.0000 C   0  0  0  0  0  0  0  0  0  0  0  0
    4.1907    1.2534    0.0000 C   0  0  0  0  0  0  0  0  0  0  0  0
    8.0820    8.8646    0.0000 C   0  0  0  0  0  0  0  0  0  0  0  0
    7.0820    8.8646    0.0000 C   0  0  0  0  0  0  0  0  0  0  0  0
    8.5820    9.7306    0.0000 C   0  0  0  0  0  0  0  0  0  0  0  0
    6.5820    9.7306    0.0000 C   0  0  0  0  0  0  0  0  0  0  0  0
    8.0820   10.5966    0.0000 C   0  0  0  0  0  0  0  0  0  0  0  0
    7.0820   10.5966    0.0000 C   0  0  0  0  0  0  0  0  0  0  0  0
    9.6880    4.0498    0.0000 H   0  0  0  0  0  0  0  0  0  0  0  0
    9.1426    1.9714    0.0000 H   0  0  0  0  0  0  0  0  0  0  0  0
   11.3116    2.8652    0.0000 H   0  0  0  0  0  0  0  0  0  0  0  0
   10.9125    3.6316    0.0000 H   0  0  0  0  0  0  0  0  0  0  0  0
   10.2639    1.4885    0.0000 H   0  0  0  0  0  0  0  0  0  0  0  0
   11.0527    1.8993    0.0000 H   0  0  0  0  0  0  0  0  0  0  0  0
    7.2804    3.8607    0.0000 H   0  0  0  0  0  0  0  0  0  0  0  0
    6.6711    3.3245    0.0000 H   0  0  0  0  0  0  0  0  0  0  0  0
    7.4330    1.2515    0.0000 H   0  0  0  0  0  0  0  0  0  0  0  0
    8.2555    1.2611    0.0000 H   0  0  0  0  0  0  0  0  0  0  0  0
    6.5563    2.7023    0.0000 H   0  0  0  0  0  0  0  0  0  0  0  0
    7.6071    5.7990    0.0000 H   0  0  0  0  0  0  0  0  0  0  0  0
    7.6071    5.0019    0.0000 H   0  0  0  0  0  0  0  0  0  0  0  0
    9.0570    5.8680    0.0000 H   0  0  0  0  0  0  0  0  0  0  0  0
    9.0570    6.6650    0.0000 H   0  0  0  0  0  0  0  0  0  0  0  0
    5.4117    3.1908    0.0000 H   0  0  0  0  0  0  0  0  0  0  0  0
    6.3714    0.5541    0.0000 H   0  0  0  0  0  0  0  0  0  0  0  0
    7.6071    7.5310    0.0000 H   0  0  0  0  0  0  0  0  0  0  0  0
    7.6071    6.7340    0.0000 H   0  0  0  0  0  0  0  0  0  0  0  0
    3.8894    2.6367    0.0000 H   0  0  0  0  0  0  0  0  0  0  0  0
    4.8491    0.0000    0.0000 H   0  0  0  0  0  0  0  0  0  0  0  0
    6.7720    8.3276    0.0000 H   0  0  0  0  0  0  0  0  0  0  0  0
    9.2020    9.7306    0.0000 H   0  0  0  0  0  0  0  0  0  0  0  0
    5.9620    9.7306    0.0000 H   0  0  0  0  0  0  0  0  0  0  0  0
    8.3920   11.1336    0.0000 H   0  0  0  0  0  0  0  0  0  0  0  0
    1.0000    5.4499    0.0000 H   0  0  0  0  0  0  0  0  0  0  0  0
  1 22  1  0  0  0  0
  2 54  1  0  0  0  0
  3 28  1  0  0  0  0
  4 21  2  0  0  0  0
  5  6  1  0  0  0  0
  5  7  1  0  0  0  0
  5 13  1  0  0  0  0
  6  8  1  0  0  0  0
  6 10  1  0  0  0  0
  6 29  1  0  0  0  0
  7  9  1  0  0  0  0
  7 11  1  0  0  0  0
  7 30  1  0  0  0  0
  8  9  1  0  0  0  0
  8 31  1  0  0  0  0
  8 32  1  0  0  0  0
  9 33  1  0  0  0  0
  9 34  1  0  0  0  0
 10 12  1  0  0  0  0
 10 35  1  0  0  0  0
 10 36  1  0  0  0  0
 11 12  1  0  0  0  0
 11 37  1  0  0  0  0
 11 38  1  0  0  0  0
 12 14  1  0  0  0  0
 12 39  1  0  0  0  0
 13 15  1  0  0  0  0
 13 40  1  0  0  0  0
 13 41  1  0  0  0  0
 14 16  2  0  0  0  0
 14 17  1  0  0  0  0
 15 18  1  0  0  0  0
 15 42  1  0  0  0  0
 15 43  1  0  0  0  0
 16 19  1  0  0  0  0
 16 44  1  0  0  0  0
 17 20  2  0  0  0  0
 17 45  1  0  0  0  0
 18 21  1  0  0  0  0
 18 46  1  0  0  0  0
 18 47  1  0  0  0  0
 19 22  2  0  0  0  0
 19 48  1  0  0  0  0
 20 22  1  0  0  0  0
 20 49  1  0  0  0  0
 21 23  1  0  0  0  0
 23 24  2  0  0  0  0
 23 25  1  0  0  0  0
 24 26  1  0  0  0  0
 24 50  1  0  0  0  0
 25 27  2  0  0  0  0
 25 51  1  0  0  0  0
 26 28  2  0  0  0  0
 26 52  1  0  0  0  0
 27 28  1  0  0  0  0
 27 53  1  0  0  0  0
M  END
> <PUBCHEM_COMPOUND_CID>
45263203

> <PUBCHEM_COMPOUND_CANONICALIZED>
1

> <PUBCHEM_CACTVS_COMPLEXITY>
485

> <PUBCHEM_CACTVS_HBOND_ACCEPTOR>
3

> <PUBCHEM_CACTVS_HBOND_DONOR>
1

> <PUBCHEM_CACTVS_ROTATABLE_BOND>
6

> <PUBCHEM_CACTVS_SUBSKEYS>
AAADceB6IQAGAAAAAAAAAAAAAAAAAWAAAAA8YIAABgAAAAABQAAAHwIAAAAADS7BmCwwAIMAAACIAqBSAAACAAAkBQAIiAEIAsgIIDKBlxCEIQAggACIiYcciMCOhAAAAAAAAAAIAAAAAAAAAAAAAAAAAA==

> <PUBCHEM_IUPAC_OPENEYE_NAME>
4-[3-(4-chlorophenyl)-8-azabicyclo[3.2.1]octan-8-yl]-1-(4-fluorophenyl)butan-1-one;hydrochloride

> <PUBCHEM_IUPAC_CAS_NAME>
4-[3-(4-chlorophenyl)-8-azabicyclo[3.2.1]octan-8-yl]-1-(4-fluorophenyl)-1-butanone;hydrochloride

> <PUBCHEM_IUPAC_NAME_MARKUP>
4-[3-(4-chlorophenyl)-8-azabicyclo[3.2.1]octan-8-yl]-1-(4-fluorophenyl)butan-1-one;hydrochloride

> <PUBCHEM_IUPAC_NAME>
4-[3-(4-chlorophenyl)-8-azabicyclo[3.2.1]octan-8-yl]-1-(4-fluorophenyl)butan-1-one;hydrochloride

> <PUBCHEM_IUPAC_SYSTEMATIC_NAME>
4-[3-(4-chlorophenyl)-8-azabicyclo[3.2.1]octan-8-yl]-1-(4-fluorophenyl)butan-1-one;hydrochloride

> <PUBCHEM_IUPAC_TRADITIONAL_NAME>
4-[3-(4-chlorophenyl)-8-azabicyclo[3.2.1]octan-8-yl]-1-(4-fluorophenyl)butan-1-one;hydrochloride

> <PUBCHEM_IUPAC_INCHI>
InChI=1S/C23H25ClFNO.ClH/c24-19-7-3-16(4-8-19)18-14-21-11-12-22(15-18)26(21)13-1-2-23(27)17-5-9-20(25)10-6-17;/h3-10,18,21-22H,1-2,11-15H2;1H

> <PUBCHEM_IUPAC_INCHIKEY>
DDAJLSNWYGLLBX-UHFFFAOYSA-N

> <PUBCHEM_EXACT_MASS>
421.1375480

> <PUBCHEM_MOLECULAR_FORMULA>
C23H26Cl2FNO

> <PUBCHEM_MOLECULAR_WEIGHT>
422.4

> <PUBCHEM_OPENEYE_CAN_SMILES>
C1CC2CC(CC1N2CCCC(=O)C3=CC=C(C=C3)F)C4=CC=C(C=C4)Cl.Cl

> <PUBCHEM_OPENEYE_ISO_SMILES>
C1CC2CC(CC1N2CCCC(=O)C3=CC=C(C=C3)F)C4=CC=C(C=C4)Cl.Cl

> <PUBCHEM_CACTVS_TPSA>
20.3

> <PUBCHEM_MONOISOTOPIC_WEIGHT>
421.1375480

> <PUBCHEM_TOTAL_CHARGE>
0

> <PUBCHEM_HEAVY_ATOM_COUNT>
28

> <PUBCHEM_ATOM_DEF_STEREO_COUNT>
0

> <PUBCHEM_ATOM_UDEF_STEREO_COUNT>
2

> <PUBCHEM_BOND_DEF_STEREO_COUNT>
0

> <PUBCHEM_BOND_UDEF_STEREO_COUNT>
0

> <PUBCHEM_ISOTOPIC_ATOM_COUNT>
0

> <PUBCHEM_COMPONENT_COUNT>
2

> <PUBCHEM_CACTVS_TAUTO_COUNT>
-1

> <PUBCHEM_COORDINATE_TYPE>
1
5
255

> <PUBCHEM_BONDANNOTATIONS>
14  16  8
14  17  8
16  19  8
17  20  8
19  22  8
20  22  8
23  24  8
23  25  8
24  26  8
25  27  8
26  28  8
27  28  8
6  8  3
7  9  3

$$$$
