44415647
  -OEChem-09292322482D

 70 75  0     0  0  0  0  0  0999 V2000
    8.7204   -1.8737    0.0000 Cl  0  0  0  0  0  0  0  0  0  0  0  0
    4.0169   -5.7007    0.0000 Cl  0  0  0  0  0  0  0  0  0  0  0  0
    4.0330    7.7007    0.0000 F   0  0  0  0  0  0  0  0  0  0  0  0
    2.6435    7.4378    0.0000 F   0  0  0  0  0  0  0  0  0  0  0  0
    4.2960    6.3111    0.0000 F   0  0  0  0  0  0  0  0  0  0  0  0
    2.9064    6.0482    0.0000 O   0  0  0  0  0  0  0  0  0  0  0  0
    6.6150   -4.2007    0.0000 O   0  0  0  0  0  0  0  0  0  0  0  0
    3.0814    1.6929    0.0000 N   0  0  0  0  0  0  0  0  0  0  0  0
    3.9491   -0.1091    0.0000 N   0  0  0  0  0  0  0  0  0  0  0  0
    5.3830   -1.0101    0.0000 N   0  0  0  0  0  0  0  0  0  0  0  0
    4.8830   -3.2007    0.0000 N   0  0  0  0  0  0  0  0  0  0  0  0
    4.8830   -4.2007    0.0000 N   0  0  0  0  0  0  0  0  0  0  0  0
    2.5180    0.8666    0.0000 C   0  0  0  0  0  0  0  0  0  0  0  0
    4.0786    1.6181    0.0000 C   0  0  0  0  0  0  0  0  0  0  0  0
    2.9519   -0.0343    0.0000 C   0  0  0  0  0  0  0  0  0  0  0  0
    4.5125    0.7171    0.0000 C   0  0  0  0  0  0  0  0  0  0  0  0
    2.6475    2.5938    0.0000 C   0  0  0  0  0  0  0  0  0  0  0  0
    4.3830   -1.0101    0.0000 C   0  0  0  0  0  0  0  0  0  0  0  0
    3.7595   -1.7919    0.0000 C   0  0  0  0  0  0  0  0  0  0  0  0
    3.2108    3.4201    0.0000 C   0  0  0  0  0  0  0  0  0  0  0  0
    3.9820   -2.7668    0.0000 C   0  0  0  0  0  0  0  0  0  0  0  0
    6.0065   -1.7919    0.0000 C   0  0  0  0  0  0  0  0  0  0  0  0
    5.7840   -2.7668    0.0000 C   0  0  0  0  0  0  0  0  0  0  0  0
    2.7690   -1.4695    0.0000 C   0  0  0  0  0  0  0  0  0  0  0  0
    2.7769    4.3210    0.0000 C   0  0  0  0  0  0  0  0  0  0  0  0
    4.2080    3.3453    0.0000 C   0  0  0  0  0  0  0  0  0  0  0  0
    3.2295   -3.4870    0.0000 C   0  0  0  0  0  0  0  0  0  0  0  0
    2.0000   -2.1721    0.0000 C   0  0  0  0  0  0  0  0  0  0  0  0
    2.2318   -3.1876    0.0000 C   0  0  0  0  0  0  0  0  0  0  0  0
    6.9970   -1.4696    0.0000 C   0  0  0  0  0  0  0  0  0  0  0  0
    6.5365   -3.4870    0.0000 C   0  0  0  0  0  0  0  0  0  0  0  0
    3.3403    5.1473    0.0000 C   0  0  0  0  0  0  0  0  0  0  0  0
    4.7714    4.1716    0.0000 C   0  0  0  0  0  0  0  0  0  0  0  0
    4.3375    5.0725    0.0000 C   0  0  0  0  0  0  0  0  0  0  0  0
    7.7660   -2.1722    0.0000 C   0  0  0  0  0  0  0  0  0  0  0  0
    7.5342   -3.1877    0.0000 C   0  0  0  0  0  0  0  0  0  0  0  0
    5.7490   -4.7007    0.0000 C   0  0  0  0  0  0  0  0  0  0  0  0
    5.7490   -5.7007    0.0000 C   0  0  0  0  0  0  0  0  0  0  0  0
    3.4697    6.8745    0.0000 C   0  0  0  0  0  0  0  0  0  0  0  0
    4.8830   -6.2007    0.0000 C   0  0  0  0  0  0  0  0  0  0  0  0
    6.6150   -6.2007    0.0000 C   0  0  0  0  0  0  0  0  0  0  0  0
    4.8830   -7.2007    0.0000 C   0  0  0  0  0  0  0  0  0  0  0  0
    6.6150   -7.2007    0.0000 C   0  0  0  0  0  0  0  0  0  0  0  0
    5.7490   -7.7007    0.0000 C   0  0  0  0  0  0  0  0  0  0  0  0
    2.0742    1.2995    0.0000 H   0  0  0  0  0  0  0  0  0  0  0  0
    2.0146    0.5047    0.0000 H   0  0  0  0  0  0  0  0  0  0  0  0
    4.6754    1.7860    0.0000 H   0  0  0  0  0  0  0  0  0  0  0  0
    4.0168    2.2350    0.0000 H   0  0  0  0  0  0  0  0  0  0  0  0
    2.3551   -0.2023    0.0000 H   0  0  0  0  0  0  0  0  0  0  0  0
    3.0137   -0.6513    0.0000 H   0  0  0  0  0  0  0  0  0  0  0  0
    4.9563    0.2842    0.0000 H   0  0  0  0  0  0  0  0  0  0  0  0
    5.0159    1.0791    0.0000 H   0  0  0  0  0  0  0  0  0  0  0  0
    2.2037    3.0267    0.0000 H   0  0  0  0  0  0  0  0  0  0  0  0
    2.1441    2.2319    0.0000 H   0  0  0  0  0  0  0  0  0  0  0  0
    2.6380   -0.8635    0.0000 H   0  0  0  0  0  0  0  0  0  0  0  0
    2.1587    4.3674    0.0000 H   0  0  0  0  0  0  0  0  0  0  0  0
    4.4770    2.7867    0.0000 H   0  0  0  0  0  0  0  0  0  0  0  0
    3.3744   -4.0898    0.0000 H   0  0  0  0  0  0  0  0  0  0  0  0
    1.4083   -1.9871    0.0000 H   0  0  0  0  0  0  0  0  0  0  0  0
    1.7789   -3.6111    0.0000 H   0  0  0  0  0  0  0  0  0  0  0  0
    7.1280   -0.8636    0.0000 H   0  0  0  0  0  0  0  0  0  0  0  0
    6.3916   -4.0898    0.0000 H   0  0  0  0  0  0  0  0  0  0  0  0
    4.3460   -4.5107    0.0000 H   0  0  0  0  0  0  0  0  0  0  0  0
    5.3896    4.1252    0.0000 H   0  0  0  0  0  0  0  0  0  0  0  0
    4.6867    5.5848    0.0000 H   0  0  0  0  0  0  0  0  0  0  0  0
    7.9871   -3.6111    0.0000 H   0  0  0  0  0  0  0  0  0  0  0  0
    7.1520   -5.8907    0.0000 H   0  0  0  0  0  0  0  0  0  0  0  0
    4.3460   -7.5107    0.0000 H   0  0  0  0  0  0  0  0  0  0  0  0
    7.1520   -7.5107    0.0000 H   0  0  0  0  0  0  0  0  0  0  0  0
    5.7490   -8.3207    0.0000 H   0  0  0  0  0  0  0  0  0  0  0  0
  1 35  1  0  0  0  0
  2 40  1  0  0  0  0
  3 39  1  0  0  0  0
  4 39  1  0  0  0  0
  5 39  1  0  0  0  0
  6 32  1  0  0  0  0
  6 39  1  0  0  0  0
  7 37  2  0  0  0  0
  8 13  1  0  0  0  0
  8 14  1  0  0  0  0
  8 17  1  0  0  0  0
  9 15  1  0  0  0  0
  9 16  1  0  0  0  0
  9 18  1  0  0  0  0
 10 18  2  0  0  0  0
 10 22  1  0  0  0  0
 11 12  1  0  0  0  0
 11 21  1  0  0  0  0
 11 23  1  0  0  0  0
 12 37  1  0  0  0  0
 12 63  1  0  0  0  0
 13 15  1  0  0  0  0
 13 45  1  0  0  0  0
 13 46  1  0  0  0  0
 14 16  1  0  0  0  0
 14 47  1  0  0  0  0
 14 48  1  0  0  0  0
 15 49  1  0  0  0  0
 15 50  1  0  0  0  0
 16 51  1  0  0  0  0
 16 52  1  0  0  0  0
 17 20  1  0  0  0  0
 17 53  1  0  0  0  0
 17 54  1  0  0  0  0
 18 19  1  0  0  0  0
 19 21  1  0  0  0  0
 19 24  2  0  0  0  0
 20 25  2  0  0  0  0
 20 26  1  0  0  0  0
 21 27  2  0  0  0  0
 22 23  2  0  0  0  0
 22 30  1  0  0  0  0
 23 31  1  0  0  0  0
 24 28  1  0  0  0  0
 24 55  1  0  0  0  0
 25 32  1  0  0  0  0
 25 56  1  0  0  0  0
 26 33  2  0  0  0  0
 26 57  1  0  0  0  0
 27 29  1  0  0  0  0
 27 58  1  0  0  0  0
 28 29  2  0  0  0  0
 28 59  1  0  0  0  0
 29 60  1  0  0  0  0
 30 35  2  0  0  0  0
 30 61  1  0  0  0  0
 31 36  2  0  0  0  0
 31 62  1  0  0  0  0
 32 34  2  0  0  0  0
 33 34  1  0  0  0  0
 33 64  1  0  0  0  0
 34 65  1  0  0  0  0
 35 36  1  0  0  0  0
 36 66  1  0  0  0  0
 37 38  1  0  0  0  0
 38 40  1  0  0  0  0
 38 41  2  0  0  0  0
 40 42  2  0  0  0  0
 41 43  1  0  0  0  0
 41 67  1  0  0  0  0
 42 44  1  0  0  0  0
 42 68  1  0  0  0  0
 43 44  2  0  0  0  0
 43 69  1  0  0  0  0
 44 70  1  0  0  0  0
M  END
> <PUBCHEM_COMPOUND_CID>
44415647

> <PUBCHEM_COMPOUND_CANONICALIZED>
1

> <PUBCHEM_CACTVS_COMPLEXITY>
1010

> <PUBCHEM_CACTVS_HBOND_ACCEPTOR>
8

> <PUBCHEM_CACTVS_HBOND_DONOR>
1

> <PUBCHEM_CACTVS_ROTATABLE_BOND>
6

> <PUBCHEM_CACTVS_SUBSKEYS>
AAADceB/sYAGAAAAAAAAAAAAAAAAAAAAAAA8YMGCBAAAAAABVAAAHwIYAAAADA7BmDQxxoNiBACoAidydACCDAElJwAbqAEuftgMZvLF/5uUMShkwBHI7Ye4yBCOAABBAAIDACAAAIIABAYAQAAAAAAAAA==

> <PUBCHEM_IUPAC_OPENEYE_NAME>
2-chloro-N-[3-chloro-6-[4-[[3-(trifluoromethoxy)phenyl]methyl]piperazin-1-yl]benzo[b][1,4]benzodiazepin-11-yl]benzamide

> <PUBCHEM_IUPAC_CAS_NAME>
2-chloro-N-[3-chloro-6-[4-[[3-(trifluoromethoxy)phenyl]methyl]-1-piperazinyl]-11-benzo[b][1,4]benzodiazepinyl]benzamide

> <PUBCHEM_IUPAC_NAME_MARKUP>
2-chloro-<I>N</I>-[3-chloro-6-[4-[[3-(trifluoromethoxy)phenyl]methyl]piperazin-1-yl]benzo[b][1,4]benzodiazepin-11-yl]benzamide

> <PUBCHEM_IUPAC_NAME>
2-chloro-N-[3-chloro-6-[4-[[3-(trifluoromethoxy)phenyl]methyl]piperazin-1-yl]benzo[b][1,4]benzodiazepin-11-yl]benzamide

> <PUBCHEM_IUPAC_SYSTEMATIC_NAME>
2-chloranyl-N-[3-chloranyl-6-[4-[[3-(trifluoromethyloxy)phenyl]methyl]piperazin-1-yl]benzo[b][1,4]benzodiazepin-11-yl]benzamide

> <PUBCHEM_IUPAC_TRADITIONAL_NAME>
2-chloro-N-[3-chloro-6-[4-[3-(trifluoromethoxy)benzyl]piperazino]benzo[b][1,4]benzodiazepin-11-yl]benzamide

> <PUBCHEM_IUPAC_INCHI>
InChI=1S/C32H26Cl2F3N5O2/c33-22-12-13-29-27(19-22)38-30(25-9-2-4-11-28(25)42(29)39-31(43)24-8-1-3-10-26(24)34)41-16-14-40(15-17-41)20-21-6-5-7-23(18-21)44-32(35,36)37/h1-13,18-19H,14-17,20H2,(H,39,43)

> <PUBCHEM_IUPAC_INCHIKEY>
QECFHDSLXZOCHC-UHFFFAOYSA-N

> <PUBCHEM_XLOGP3_AA>
7.7

> <PUBCHEM_EXACT_MASS>
639.1415650

> <PUBCHEM_MOLECULAR_FORMULA>
C32H26Cl2F3N5O2

> <PUBCHEM_MOLECULAR_WEIGHT>
640.5

> <PUBCHEM_OPENEYE_CAN_SMILES>
C1CN(CCN1CC2=CC(=CC=C2)OC(F)(F)F)C3=NC4=C(C=CC(=C4)Cl)N(C5=CC=CC=C53)NC(=O)C6=CC=CC=C6Cl

> <PUBCHEM_OPENEYE_ISO_SMILES>
C1CN(CCN1CC2=CC(=CC=C2)OC(F)(F)F)C3=NC4=C(C=CC(=C4)Cl)N(C5=CC=CC=C53)NC(=O)C6=CC=CC=C6Cl

> <PUBCHEM_CACTVS_TPSA>
60.4

> <PUBCHEM_MONOISOTOPIC_WEIGHT>
639.1415650

> <PUBCHEM_TOTAL_CHARGE>
0

> <PUBCHEM_HEAVY_ATOM_COUNT>
44

> <PUBCHEM_ATOM_DEF_STEREO_COUNT>
0

> <PUBCHEM_ATOM_UDEF_STEREO_COUNT>
0

> <PUBCHEM_BOND_DEF_STEREO_COUNT>
0

> <PUBCHEM_BOND_UDEF_STEREO_COUNT>
0

> <PUBCHEM_ISOTOPIC_ATOM_COUNT>
0

> <PUBCHEM_COMPONENT_COUNT>
1

> <PUBCHEM_CACTVS_TAUTO_COUNT>
-1

> <PUBCHEM_COORDINATE_TYPE>
1
5
255

> <PUBCHEM_BONDANNOTATIONS>
19  21  8
19  24  8
20  25  8
20  26  8
21  27  8
22  23  8
22  30  8
23  31  8
24  28  8
25  32  8
26  33  8
27  29  8
28  29  8
30  35  8
31  36  8
32  34  8
33  34  8
35  36  8
38  40  8
38  41  8
40  42  8
41  43  8
42  44  8
43  44  8

$$$$
