156012741
  -OEChem-09292322422D

 68 72  0     1  0  0  0  0  0999 V2000
   15.3879   -3.1781    0.0000 F   0  0  0  0  0  0  0  0  0  0  0  0
   16.1990   -2.0196    0.0000 F   0  0  0  0  0  0  0  0  0  0  0  0
   14.2294   -2.3669    0.0000 F   0  0  0  0  0  0  0  0  0  0  0  0
    4.1944   -0.9719    0.0000 O   0  0  0  0  0  0  0  0  0  0  0  0
    5.3951    2.3269    0.0000 O   0  0  0  0  0  0  0  0  0  0  0  0
    5.0513    0.5841    0.0000 N   0  0  0  0  0  0  0  0  0  0  0  0
   11.1082    1.1444    0.0000 N   0  0  0  0  0  0  0  0  0  0  0  0
   12.9876    0.4604    0.0000 N   0  0  0  0  0  0  0  0  0  0  0  0
    2.0700    1.2295    0.0000 C   0  0  1  0  0  0  0  0  0  0  0  0
    1.8112    2.1955    0.0000 C   0  0  2  0  0  0  0  0  0  0  0  0
    3.4427    0.6375    0.0000 C   0  0  1  0  0  0  0  0  0  0  0  0
    3.7847    1.5772    0.0000 C   0  0  2  0  0  0  0  0  0  0  0  0
    2.5478    3.1781    0.0000 C   0  0  0  0  0  0  0  0  0  0  0  0
    0.6710    0.7207    0.0000 C   0  0  0  0  0  0  0  0  0  0  0  0
    0.4122    1.6866    0.0000 C   0  0  0  0  0  0  0  0  0  0  0  0
    4.2276    0.0275    0.0000 C   0  0  0  0  0  0  0  0  0  0  0  0
    4.7781    1.5399    0.0000 C   0  0  0  0  0  0  0  0  0  0  0  0
    5.9910    0.2421    0.0000 C   0  0  0  0  0  0  0  0  0  0  0  0
    6.7570    0.8849    0.0000 C   0  0  0  0  0  0  0  0  0  0  0  0
    7.6967    0.5429    0.0000 C   0  0  0  0  0  0  0  0  0  0  0  0
    8.4627    1.1857    0.0000 C   0  0  0  0  0  0  0  0  0  0  0  0
    9.4024    0.8437    0.0000 C   0  0  0  0  0  0  0  0  0  0  0  0
   10.1685    1.4864    0.0000 C   0  0  0  0  0  0  0  0  0  0  0  0
   11.2818    0.1596    0.0000 C   0  0  0  0  0  0  0  0  0  0  0  0
   11.8742    1.7872    0.0000 C   0  0  0  0  0  0  0  0  0  0  0  0
   12.2215   -0.1824    0.0000 C   0  0  0  0  0  0  0  0  0  0  0  0
   12.8139    1.4452    0.0000 C   0  0  0  0  0  0  0  0  0  0  0  0
   13.9272    0.1184    0.0000 C   0  0  0  0  0  0  0  0  0  0  0  0
   14.1009   -0.8664    0.0000 C   0  0  0  0  0  0  0  0  0  0  0  0
   14.6933    0.7611    0.0000 C   0  0  0  0  0  0  0  0  0  0  0  0
   15.0406   -1.2085    0.0000 C   0  0  0  0  0  0  0  0  0  0  0  0
   15.6330    0.4191    0.0000 C   0  0  0  0  0  0  0  0  0  0  0  0
   15.8066   -0.5657    0.0000 C   0  0  0  0  0  0  0  0  0  0  0  0
   15.2142   -2.1933    0.0000 C   0  0  0  0  0  0  0  0  0  0  0  0
    2.2900    0.4085    0.0000 H   0  0  0  0  0  0  0  0  0  0  0  0
    1.5912    3.0165    0.0000 H   0  0  0  0  0  0  0  0  0  0  0  0
    3.1520   -0.1612    0.0000 H   0  0  0  0  0  0  0  0  0  0  0  0
    4.0754    2.3760    0.0000 H   0  0  0  0  0  0  0  0  0  0  0  0
    2.2300    3.7104    0.0000 H   0  0  0  0  0  0  0  0  0  0  0  0
    3.1609    3.2700    0.0000 H   0  0  0  0  0  0  0  0  0  0  0  0
    0.8660    0.1322    0.0000 H   0  0  0  0  0  0  0  0  0  0  0  0
    0.0771    0.5430    0.0000 H   0  0  0  0  0  0  0  0  0  0  0  0
   -0.1817    1.5089    0.0000 H   0  0  0  0  0  0  0  0  0  0  0  0
    0.2173    2.2752    0.0000 H   0  0  0  0  0  0  0  0  0  0  0  0
    6.4659   -0.1564    0.0000 H   0  0  0  0  0  0  0  0  0  0  0  0
    5.6810   -0.2948    0.0000 H   0  0  0  0  0  0  0  0  0  0  0  0
    6.2820    1.2834    0.0000 H   0  0  0  0  0  0  0  0  0  0  0  0
    7.0670    1.4218    0.0000 H   0  0  0  0  0  0  0  0  0  0  0  0
    8.1716    0.1444    0.0000 H   0  0  0  0  0  0  0  0  0  0  0  0
    7.3867    0.0059    0.0000 H   0  0  0  0  0  0  0  0  0  0  0  0
    7.9878    1.5842    0.0000 H   0  0  0  0  0  0  0  0  0  0  0  0
    8.7727    1.7226    0.0000 H   0  0  0  0  0  0  0  0  0  0  0  0
    9.8774    0.4451    0.0000 H   0  0  0  0  0  0  0  0  0  0  0  0
    9.0924    0.3067    0.0000 H   0  0  0  0  0  0  0  0  0  0  0  0
    9.6935    1.8850    0.0000 H   0  0  0  0  0  0  0  0  0  0  0  0
   10.4785    2.0234    0.0000 H   0  0  0  0  0  0  0  0  0  0  0  0
   11.1742   -0.4510    0.0000 H   0  0  0  0  0  0  0  0  0  0  0  0
   10.6618    0.1596    0.0000 H   0  0  0  0  0  0  0  0  0  0  0  0
   11.3993    2.1857    0.0000 H   0  0  0  0  0  0  0  0  0  0  0  0
   12.1842    2.3241    0.0000 H   0  0  0  0  0  0  0  0  0  0  0  0
   12.6965   -0.5809    0.0000 H   0  0  0  0  0  0  0  0  0  0  0  0
   11.9115   -0.7193    0.0000 H   0  0  0  0  0  0  0  0  0  0  0  0
   12.9216    2.0558    0.0000 H   0  0  0  0  0  0  0  0  0  0  0  0
   13.4339    1.4452    0.0000 H   0  0  0  0  0  0  0  0  0  0  0  0
   13.6259   -1.2650    0.0000 H   0  0  0  0  0  0  0  0  0  0  0  0
   14.5856    1.3717    0.0000 H   0  0  0  0  0  0  0  0  0  0  0  0
   16.1079    0.8177    0.0000 H   0  0  0  0  0  0  0  0  0  0  0  0
   16.3892   -0.7777    0.0000 H   0  0  0  0  0  0  0  0  0  0  0  0
  1 34  1  0  0  0  0
  2 34  1  0  0  0  0
  3 34  1  0  0  0  0
  4 16  2  0  0  0  0
  5 17  2  0  0  0  0
  6 16  1  0  0  0  0
  6 17  1  0  0  0  0
  6 18  1  0  0  0  0
  7 23  1  0  0  0  0
  7 24  1  0  0  0  0
  7 25  1  0  0  0  0
  8 26  1  0  0  0  0
  8 27  1  0  0  0  0
  8 28  1  0  0  0  0
  9 11  1  0  0  0  0
  9 13  1  0  0  0  0
  9 14  1  0  0  0  0
  9 35  1  1  0  0  0
 10 12  1  0  0  0  0
 10 13  1  0  0  0  0
 10 15  1  0  0  0  0
 10 36  1  6  0  0  0
 11 12  1  0  0  0  0
 11 16  1  0  0  0  0
 11 37  1  6  0  0  0
 12 17  1  0  0  0  0
 12 38  1  6  0  0  0
 13 39  1  0  0  0  0
 13 40  1  0  0  0  0
 14 15  1  0  0  0  0
 14 41  1  0  0  0  0
 14 42  1  0  0  0  0
 15 43  1  0  0  0  0
 15 44  1  0  0  0  0
 18 19  1  0  0  0  0
 18 45  1  0  0  0  0
 18 46  1  0  0  0  0
 19 20  1  0  0  0  0
 19 47  1  0  0  0  0
 19 48  1  0  0  0  0
 20 21  1  0  0  0  0
 20 49  1  0  0  0  0
 20 50  1  0  0  0  0
 21 22  1  0  0  0  0
 21 51  1  0  0  0  0
 21 52  1  0  0  0  0
 22 23  1  0  0  0  0
 22 53  1  0  0  0  0
 22 54  1  0  0  0  0
 23 55  1  0  0  0  0
 23 56  1  0  0  0  0
 24 26  1  0  0  0  0
 24 57  1  0  0  0  0
 24 58  1  0  0  0  0
 25 27  1  0  0  0  0
 25 59  1  0  0  0  0
 25 60  1  0  0  0  0
 26 61  1  0  0  0  0
 26 62  1  0  0  0  0
 27 63  1  0  0  0  0
 27 64  1  0  0  0  0
 28 29  1  0  0  0  0
 28 30  2  0  0  0  0
 29 31  2  0  0  0  0
 29 65  1  0  0  0  0
 30 32  1  0  0  0  0
 30 66  1  0  0  0  0
 31 33  1  0  0  0  0
 31 34  1  0  0  0  0
 32 33  2  0  0  0  0
 32 67  1  0  0  0  0
 33 68  1  0  0  0  0
M  END
> <PUBCHEM_COMPOUND_CID>
156012741

> <PUBCHEM_COMPOUND_CANONICALIZED>
1

> <PUBCHEM_CACTVS_COMPLEXITY>
724

> <PUBCHEM_CACTVS_HBOND_ACCEPTOR>
7

> <PUBCHEM_CACTVS_HBOND_DONOR>
0

> <PUBCHEM_CACTVS_ROTATABLE_BOND>
8

> <PUBCHEM_CACTVS_SUBSKEYS>
AAADcfB7MYAAAAAAAAAAAAAAAAAAAeMEAAA8YIAAAAAWAAABAAAAHwAAAAAADQjBmBQwwIMAAACIAiVSUACCAAAhAgAIiAEIZIgIYDLAkZGUIAhghiDIyAcdiMCOgAAAQAAAAAAAAASAACAAAQAACAAAAA==

> <PUBCHEM_IUPAC_OPENEYE_NAME>
(1R,2S,6R,7S)-4-[6-[4-[3-(trifluoromethyl)phenyl]piperazin-1-yl]hexyl]-4-azatricyclo[5.2.1.02,6]decane-3,5-dione

> <PUBCHEM_IUPAC_CAS_NAME>
(1R,2S,6R,7S)-4-[6-[4-[3-(trifluoromethyl)phenyl]-1-piperazinyl]hexyl]-4-azatricyclo[5.2.1.02,6]decane-3,5-dione

> <PUBCHEM_IUPAC_NAME_MARKUP>
(1<I>R</I>,2<I>S</I>,6<I>R</I>,7<I>S</I>)-4-[6-[4-[3-(trifluoromethyl)phenyl]piperazin-1-yl]hexyl]-4-azatricyclo[5.2.1.0<SUP>2,6</SUP>]decane-3,5-dione

> <PUBCHEM_IUPAC_NAME>
(1R,2S,6R,7S)-4-[6-[4-[3-(trifluoromethyl)phenyl]piperazin-1-yl]hexyl]-4-azatricyclo[5.2.1.02,6]decane-3,5-dione

> <PUBCHEM_IUPAC_SYSTEMATIC_NAME>
(1R,2S,6R,7S)-4-[6-[4-[3-(trifluoromethyl)phenyl]piperazin-1-yl]hexyl]-4-azatricyclo[5.2.1.02,6]decane-3,5-dione

> <PUBCHEM_IUPAC_TRADITIONAL_NAME>
(1R,2S,6R,7S)-4-[6-[4-[3-(trifluoromethyl)phenyl]piperazino]hexyl]-4-azatricyclo[5.2.1.02,6]decane-3,5-quinone

> <PUBCHEM_IUPAC_INCHI>
InChI=1S/C26H34F3N3O2/c27-26(28,29)20-6-5-7-21(17-20)31-14-12-30(13-15-31)10-3-1-2-4-11-32-24(33)22-18-8-9-19(16-18)23(22)25(32)34/h5-7,17-19,22-23H,1-4,8-16H2/t18-,19+,22+,23-

> <PUBCHEM_IUPAC_INCHIKEY>
ZTEPHOYXWWHRDM-ZIIYYELXSA-N

> <PUBCHEM_XLOGP3_AA>
4.8

> <PUBCHEM_EXACT_MASS>
477.26031182

> <PUBCHEM_MOLECULAR_FORMULA>
C26H34F3N3O2

> <PUBCHEM_MOLECULAR_WEIGHT>
477.6

> <PUBCHEM_OPENEYE_CAN_SMILES>
C1CC2CC1C3C2C(=O)N(C3=O)CCCCCCN4CCN(CC4)C5=CC=CC(=C5)C(F)(F)F

> <PUBCHEM_OPENEYE_ISO_SMILES>
C1C[C@H]2C[C@@H]1[C@H]3[C@@H]2C(=O)N(C3=O)CCCCCCN4CCN(CC4)C5=CC=CC(=C5)C(F)(F)F

> <PUBCHEM_CACTVS_TPSA>
43.9

> <PUBCHEM_MONOISOTOPIC_WEIGHT>
477.26031182

> <PUBCHEM_TOTAL_CHARGE>
0

> <PUBCHEM_HEAVY_ATOM_COUNT>
34

> <PUBCHEM_ATOM_DEF_STEREO_COUNT>
4

> <PUBCHEM_ATOM_UDEF_STEREO_COUNT>
0

> <PUBCHEM_BOND_DEF_STEREO_COUNT>
0

> <PUBCHEM_BOND_UDEF_STEREO_COUNT>
0

> <PUBCHEM_ISOTOPIC_ATOM_COUNT>
0

> <PUBCHEM_COMPONENT_COUNT>
1

> <PUBCHEM_CACTVS_TAUTO_COUNT>
-1

> <PUBCHEM_COORDINATE_TYPE>
1
5
255

> <PUBCHEM_BONDANNOTATIONS>
10  36  6
11  37  6
12  38  6
28  29  8
28  30  8
29  31  8
30  32  8
31  33  8
32  33  8
9  35  5

$$$$
