25218397
  -OEChem-09292322482D

 58 61  0     0  0  0  0  0  0999 V2000
    9.8544   -2.6659    0.0000 O   0  0  0  0  0  0  0  0  0  0  0  0
    3.7359    2.8683    0.0000 O   0  0  0  0  0  0  0  0  0  0  0  0
   13.3185   -1.6659    0.0000 N   0  0  0  0  0  0  0  0  0  0  0  0
   10.7205   -1.1659    0.0000 N   0  0  0  0  0  0  0  0  0  0  0  0
    2.8641    1.3716    0.0000 N   0  0  0  0  0  0  0  0  0  0  0  0
   13.4231   -2.6604    0.0000 C   0  0  0  0  0  0  0  0  0  0  0  0
   14.2321   -1.2591    0.0000 C   0  0  0  0  0  0  0  0  0  0  0  0
   14.4012   -2.8683    0.0000 C   0  0  0  0  0  0  0  0  0  0  0  0
   14.9012   -2.0023    0.0000 C   0  0  0  0  0  0  0  0  0  0  0  0
   12.4525   -1.1659    0.0000 C   0  0  0  0  0  0  0  0  0  0  0  0
   11.5865   -1.6659    0.0000 C   0  0  0  0  0  0  0  0  0  0  0  0
   10.7205   -0.1659    0.0000 C   0  0  0  0  0  0  0  0  0  0  0  0
    9.8544    0.3341    0.0000 C   0  0  0  0  0  0  0  0  0  0  0  0
    8.9884   -0.1659    0.0000 C   0  0  0  0  0  0  0  0  0  0  0  0
    9.8544   -1.6659    0.0000 C   0  0  0  0  0  0  0  0  0  0  0  0
    8.9884   -1.1659    0.0000 C   0  0  0  0  0  0  0  0  0  0  0  0
    8.0945    0.3688    0.0000 C   0  0  0  0  0  0  0  0  0  0  0  0
    8.0945   -1.7005    0.0000 C   0  0  0  0  0  0  0  0  0  0  0  0
    7.1884   -0.1450    0.0000 C   0  0  0  0  0  0  0  0  0  0  0  0
    7.1884   -1.1867    0.0000 C   0  0  0  0  0  0  0  0  0  0  0  0
    6.3243    0.3583    0.0000 C   0  0  0  0  0  0  0  0  0  0  0  0
    6.3282    1.3583    0.0000 C   0  0  0  0  0  0  0  0  0  0  0  0
    5.4564   -0.1384    0.0000 C   0  0  0  0  0  0  0  0  0  0  0  0
    5.4641    1.8616    0.0000 C   0  0  0  0  0  0  0  0  0  0  0  0
    4.5923    0.3650    0.0000 C   0  0  0  0  0  0  0  0  0  0  0  0
    4.5961    1.3650    0.0000 C   0  0  0  0  0  0  0  0  0  0  0  0
    3.7320    1.8683    0.0000 C   0  0  0  0  0  0  0  0  0  0  0  0
    2.0000    1.8750    0.0000 C   0  0  0  0  0  0  0  0  0  0  0  0
    2.8602    0.3716    0.0000 C   0  0  0  0  0  0  0  0  0  0  0  0
   12.8031   -2.6604    0.0000 H   0  0  0  0  0  0  0  0  0  0  0  0
   13.3583   -3.2770    0.0000 H   0  0  0  0  0  0  0  0  0  0  0  0
   14.7337   -0.8947    0.0000 H   0  0  0  0  0  0  0  0  0  0  0  0
   13.9221   -0.7222    0.0000 H   0  0  0  0  0  0  0  0  0  0  0  0
   14.2096   -3.4579    0.0000 H   0  0  0  0  0  0  0  0  0  0  0  0
   14.9676   -3.1205    0.0000 H   0  0  0  0  0  0  0  0  0  0  0  0
   15.4028   -2.3667    0.0000 H   0  0  0  0  0  0  0  0  0  0  0  0
   15.3161   -1.5415    0.0000 H   0  0  0  0  0  0  0  0  0  0  0  0
   12.8510   -0.6909    0.0000 H   0  0  0  0  0  0  0  0  0  0  0  0
   12.0540   -0.6909    0.0000 H   0  0  0  0  0  0  0  0  0  0  0  0
   11.1880   -2.1408    0.0000 H   0  0  0  0  0  0  0  0  0  0  0  0
   11.9850   -2.1408    0.0000 H   0  0  0  0  0  0  0  0  0  0  0  0
   11.3310   -0.2735    0.0000 H   0  0  0  0  0  0  0  0  0  0  0  0
   10.9325    0.4168    0.0000 H   0  0  0  0  0  0  0  0  0  0  0  0
   10.2530    0.8091    0.0000 H   0  0  0  0  0  0  0  0  0  0  0  0
    9.4559    0.8091    0.0000 H   0  0  0  0  0  0  0  0  0  0  0  0
    8.1016    0.9888    0.0000 H   0  0  0  0  0  0  0  0  0  0  0  0
    8.1016   -2.3205    0.0000 H   0  0  0  0  0  0  0  0  0  0  0  0
    6.6527   -1.4987    0.0000 H   0  0  0  0  0  0  0  0  0  0  0  0
    6.8663    1.6662    0.0000 H   0  0  0  0  0  0  0  0  0  0  0  0
    5.4540   -0.7584    0.0000 H   0  0  0  0  0  0  0  0  0  0  0  0
    5.4665    2.4816    0.0000 H   0  0  0  0  0  0  0  0  0  0  0  0
    4.0542    0.0570    0.0000 H   0  0  0  0  0  0  0  0  0  0  0  0
    2.3121    2.4107    0.0000 H   0  0  0  0  0  0  0  0  0  0  0  0
    1.4643    2.1870    0.0000 H   0  0  0  0  0  0  0  0  0  0  0  0
    1.6879    1.3392    0.0000 H   0  0  0  0  0  0  0  0  0  0  0  0
    2.2402    0.3740    0.0000 H   0  0  0  0  0  0  0  0  0  0  0  0
    2.8578   -0.2483    0.0000 H   0  0  0  0  0  0  0  0  0  0  0  0
    3.4802    0.3693    0.0000 H   0  0  0  0  0  0  0  0  0  0  0  0
  1 15  2  0  0  0  0
  2 27  2  0  0  0  0
  3  6  1  0  0  0  0
  3  7  1  0  0  0  0
  3 10  1  0  0  0  0
  4 11  1  0  0  0  0
  4 12  1  0  0  0  0
  4 15  1  0  0  0  0
  5 27  1  0  0  0  0
  5 28  1  0  0  0  0
  5 29  1  0  0  0  0
  6  8  1  0  0  0  0
  6 30  1  0  0  0  0
  6 31  1  0  0  0  0
  7  9  1  0  0  0  0
  7 32  1  0  0  0  0
  7 33  1  0  0  0  0
  8  9  1  0  0  0  0
  8 34  1  0  0  0  0
  8 35  1  0  0  0  0
  9 36  1  0  0  0  0
  9 37  1  0  0  0  0
 10 11  1  0  0  0  0
 10 38  1  0  0  0  0
 10 39  1  0  0  0  0
 11 40  1  0  0  0  0
 11 41  1  0  0  0  0
 12 13  1  0  0  0  0
 12 42  1  0  0  0  0
 12 43  1  0  0  0  0
 13 14  1  0  0  0  0
 13 44  1  0  0  0  0
 13 45  1  0  0  0  0
 14 16  2  0  0  0  0
 14 17  1  0  0  0  0
 15 16  1  0  0  0  0
 16 18  1  0  0  0  0
 17 19  2  0  0  0  0
 17 46  1  0  0  0  0
 18 20  2  0  0  0  0
 18 47  1  0  0  0  0
 19 20  1  0  0  0  0
 19 21  1  0  0  0  0
 20 48  1  0  0  0  0
 21 22  2  0  0  0  0
 21 23  1  0  0  0  0
 22 24  1  0  0  0  0
 22 49  1  0  0  0  0
 23 25  2  0  0  0  0
 23 50  1  0  0  0  0
 24 26  2  0  0  0  0
 24 51  1  0  0  0  0
 25 26  1  0  0  0  0
 25 52  1  0  0  0  0
 26 27  1  0  0  0  0
 28 53  1  0  0  0  0
 28 54  1  0  0  0  0
 28 55  1  0  0  0  0
 29 56  1  0  0  0  0
 29 57  1  0  0  0  0
 29 58  1  0  0  0  0
M  END
> <PUBCHEM_COMPOUND_CID>
25218397

> <PUBCHEM_COMPOUND_CANONICALIZED>
1

> <PUBCHEM_CACTVS_COMPLEXITY>
579

> <PUBCHEM_CACTVS_HBOND_ACCEPTOR>
3

> <PUBCHEM_CACTVS_HBOND_DONOR>
0

> <PUBCHEM_CACTVS_ROTATABLE_BOND>
5

> <PUBCHEM_CACTVS_SUBSKEYS>
AAADceB7MAAAAAAAAAAAAAAAAAAAAWAAAAA8YIAAAAAAAACxQAAAHgAAAAAADADBmAQyAIMAAACIAiFSEACCAAAkAAAIiAEIBMgIYDKAlRGUIQhghgCIiYcYicCOwAACAAAQAACAAAQAACAAAAAAAAAAAA==

> <PUBCHEM_IUPAC_OPENEYE_NAME>
N,N-dimethyl-4-[1-oxo-2-(2-pyrrolidin-1-ylethyl)-3,4-dihydroisoquinolin-6-yl]benzamide

> <PUBCHEM_IUPAC_CAS_NAME>
N,N-dimethyl-4-[1-oxo-2-[2-(1-pyrrolidinyl)ethyl]-3,4-dihydroisoquinolin-6-yl]benzamide

> <PUBCHEM_IUPAC_NAME_MARKUP>
<I>N</I>,<I>N</I>-dimethyl-4-[1-oxo-2-(2-pyrrolidin-1-ylethyl)-3,4-dihydroisoquinolin-6-yl]benzamide

> <PUBCHEM_IUPAC_NAME>
N,N-dimethyl-4-[1-oxo-2-(2-pyrrolidin-1-ylethyl)-3,4-dihydroisoquinolin-6-yl]benzamide

> <PUBCHEM_IUPAC_SYSTEMATIC_NAME>
N,N-dimethyl-4-[1-oxidanylidene-2-(2-pyrrolidin-1-ylethyl)-3,4-dihydroisoquinolin-6-yl]benzamide

> <PUBCHEM_IUPAC_TRADITIONAL_NAME>
4-[1-keto-2-(2-pyrrolidinoethyl)-3,4-dihydroisoquinolin-6-yl]-N,N-dimethyl-benzamide

> <PUBCHEM_IUPAC_INCHI>
InChI=1S/C24H29N3O2/c1-25(2)23(28)19-7-5-18(6-8-19)20-9-10-22-21(17-20)11-14-27(24(22)29)16-15-26-12-3-4-13-26/h5-10,17H,3-4,11-16H2,1-2H3

> <PUBCHEM_IUPAC_INCHIKEY>
VEGKMRUZYWQMBZ-UHFFFAOYSA-N

> <PUBCHEM_XLOGP3_AA>
3

> <PUBCHEM_EXACT_MASS>
391.22597718

> <PUBCHEM_MOLECULAR_FORMULA>
C24H29N3O2

> <PUBCHEM_MOLECULAR_WEIGHT>
391.5

> <PUBCHEM_OPENEYE_CAN_SMILES>
CN(C)C(=O)C1=CC=C(C=C1)C2=CC3=C(C=C2)C(=O)N(CC3)CCN4CCCC4

> <PUBCHEM_OPENEYE_ISO_SMILES>
CN(C)C(=O)C1=CC=C(C=C1)C2=CC3=C(C=C2)C(=O)N(CC3)CCN4CCCC4

> <PUBCHEM_CACTVS_TPSA>
43.9

> <PUBCHEM_MONOISOTOPIC_WEIGHT>
391.22597718

> <PUBCHEM_TOTAL_CHARGE>
0

> <PUBCHEM_HEAVY_ATOM_COUNT>
29

> <PUBCHEM_ATOM_DEF_STEREO_COUNT>
0

> <PUBCHEM_ATOM_UDEF_STEREO_COUNT>
0

> <PUBCHEM_BOND_DEF_STEREO_COUNT>
0

> <PUBCHEM_BOND_UDEF_STEREO_COUNT>
0

> <PUBCHEM_ISOTOPIC_ATOM_COUNT>
0

> <PUBCHEM_COMPONENT_COUNT>
1

> <PUBCHEM_CACTVS_TAUTO_COUNT>
-1

> <PUBCHEM_COORDINATE_TYPE>
1
5
255

> <PUBCHEM_BONDANNOTATIONS>
14  16  8
14  17  8
16  18  8
17  19  8
18  20  8
19  20  8
21  22  8
21  23  8
22  24  8
23  25  8
24  26  8
25  26  8

$$$$
