62705331
  -OEChem-09292322482D

 55 59  0     0  0  0  0  0  0999 V2000
   10.1102   -0.4388    0.0000 O   0  0  0  0  0  0  0  0  0  0  0  0
    4.6660    4.6776    0.0000 O   0  0  0  0  0  0  0  0  0  0  0  0
    6.3981    2.6776    0.0000 O   0  0  0  0  0  0  0  0  0  0  0  0
    6.3981   -0.3224    0.0000 N   0  0  0  0  0  0  0  0  0  0  0  0
    8.9962   -1.8224    0.0000 N   0  0  0  0  0  0  0  0  0  0  0  0
   10.5710   -2.1544    0.0000 N   0  0  0  0  0  0  0  0  0  0  0  0
    4.6660    2.6776    0.0000 N   0  0  0  0  0  0  0  0  0  0  0  0
    8.7420   -4.5060    0.0000 N   0  0  0  0  0  0  0  0  0  0  0  0
    8.1301   -1.3224    0.0000 C   0  0  0  0  0  0  0  0  0  0  0  0
    7.2641   -1.8224    0.0000 C   0  0  0  0  0  0  0  0  0  0  0  0
    8.1301   -0.3224    0.0000 C   0  0  0  0  0  0  0  0  0  0  0  0
    6.3981   -1.3224    0.0000 C   0  0  0  0  0  0  0  0  0  0  0  0
    7.2641    0.1776    0.0000 C   0  0  0  0  0  0  0  0  0  0  0  0
    5.5321    0.1776    0.0000 C   0  0  0  0  0  0  0  0  0  0  0  0
    5.5321    1.1776    0.0000 C   0  0  0  0  0  0  0  0  0  0  0  0
    9.0992   -2.8112    0.0000 C   0  0  0  0  0  0  0  0  0  0  0  0
    9.9040   -1.4173    0.0000 C   0  0  0  0  0  0  0  0  0  0  0  0
    4.6660    1.6776    0.0000 C   0  0  0  0  0  0  0  0  0  0  0  0
   10.0777   -3.0174    0.0000 C   0  0  0  0  0  0  0  0  0  0  0  0
    8.4314   -3.5555    0.0000 C   0  0  0  0  0  0  0  0  0  0  0  0
   10.3884   -3.9679    0.0000 C   0  0  0  0  0  0  0  0  0  0  0  0
    3.8000    3.1776    0.0000 C   0  0  0  0  0  0  0  0  0  0  0  0
    5.5321    3.1776    0.0000 C   0  0  0  0  0  0  0  0  0  0  0  0
    9.7205   -4.7122    0.0000 C   0  0  0  0  0  0  0  0  0  0  0  0
    3.8000    4.1776    0.0000 C   0  0  0  0  0  0  0  0  0  0  0  0
    5.5321    4.1776    0.0000 C   0  0  0  0  0  0  0  0  0  0  0  0
    2.9061    2.6429    0.0000 C   0  0  0  0  0  0  0  0  0  0  0  0
    2.9061    4.7122    0.0000 C   0  0  0  0  0  0  0  0  0  0  0  0
    2.0000    3.1567    0.0000 C   0  0  0  0  0  0  0  0  0  0  0  0
    2.0000    4.1984    0.0000 C   0  0  0  0  0  0  0  0  0  0  0  0
    8.1301   -1.9424    0.0000 H   0  0  0  0  0  0  0  0  0  0  0  0
    6.8656   -2.2974    0.0000 H   0  0  0  0  0  0  0  0  0  0  0  0
    7.6626   -2.2974    0.0000 H   0  0  0  0  0  0  0  0  0  0  0  0
    8.7407   -0.4301    0.0000 H   0  0  0  0  0  0  0  0  0  0  0  0
    8.3422    0.2602    0.0000 H   0  0  0  0  0  0  0  0  0  0  0  0
    5.7875   -1.2148    0.0000 H   0  0  0  0  0  0  0  0  0  0  0  0
    6.1860   -1.9051    0.0000 H   0  0  0  0  0  0  0  0  0  0  0  0
    7.6626    0.6525    0.0000 H   0  0  0  0  0  0  0  0  0  0  0  0
    6.8656    0.6525    0.0000 H   0  0  0  0  0  0  0  0  0  0  0  0
    4.9215    0.2852    0.0000 H   0  0  0  0  0  0  0  0  0  0  0  0
    5.3200   -0.4051    0.0000 H   0  0  0  0  0  0  0  0  0  0  0  0
    6.1426    1.0699    0.0000 H   0  0  0  0  0  0  0  0  0  0  0  0
    5.7441    1.7602    0.0000 H   0  0  0  0  0  0  0  0  0  0  0  0
    4.0555    1.7852    0.0000 H   0  0  0  0  0  0  0  0  0  0  0  0
    4.4540    1.0949    0.0000 H   0  0  0  0  0  0  0  0  0  0  0  0
   11.1874   -2.0874    0.0000 H   0  0  0  0  0  0  0  0  0  0  0  0
    7.8247   -3.4276    0.0000 H   0  0  0  0  0  0  0  0  0  0  0  0
   10.9951   -4.0958    0.0000 H   0  0  0  0  0  0  0  0  0  0  0  0
    9.9132   -5.3015    0.0000 H   0  0  0  0  0  0  0  0  0  0  0  0
    6.1426    4.0699    0.0000 H   0  0  0  0  0  0  0  0  0  0  0  0
    5.7441    4.7602    0.0000 H   0  0  0  0  0  0  0  0  0  0  0  0
    2.9132    2.0229    0.0000 H   0  0  0  0  0  0  0  0  0  0  0  0
    2.9132    5.3322    0.0000 H   0  0  0  0  0  0  0  0  0  0  0  0
    1.4643    2.8447    0.0000 H   0  0  0  0  0  0  0  0  0  0  0  0
    1.4643    4.5104    0.0000 H   0  0  0  0  0  0  0  0  0  0  0  0
  1 17  2  0  0  0  0
  2 25  1  0  0  0  0
  2 26  1  0  0  0  0
  3 23  2  0  0  0  0
  4 12  1  0  0  0  0
  4 13  1  0  0  0  0
  4 14  1  0  0  0  0
  5  9  1  0  0  0  0
  5 16  1  0  0  0  0
  5 17  1  0  0  0  0
  6 17  1  0  0  0  0
  6 19  1  0  0  0  0
  6 46  1  0  0  0  0
  7 18  1  0  0  0  0
  7 22  1  0  0  0  0
  7 23  1  0  0  0  0
  8 20  2  0  0  0  0
  8 24  1  0  0  0  0
  9 10  1  0  0  0  0
  9 11  1  0  0  0  0
  9 31  1  0  0  0  0
 10 12  1  0  0  0  0
 10 32  1  0  0  0  0
 10 33  1  0  0  0  0
 11 13  1  0  0  0  0
 11 34  1  0  0  0  0
 11 35  1  0  0  0  0
 12 36  1  0  0  0  0
 12 37  1  0  0  0  0
 13 38  1  0  0  0  0
 13 39  1  0  0  0  0
 14 15  1  0  0  0  0
 14 40  1  0  0  0  0
 14 41  1  0  0  0  0
 15 18  1  0  0  0  0
 15 42  1  0  0  0  0
 15 43  1  0  0  0  0
 16 19  2  0  0  0  0
 16 20  1  0  0  0  0
 18 44  1  0  0  0  0
 18 45  1  0  0  0  0
 19 21  1  0  0  0  0
 20 47  1  0  0  0  0
 21 24  2  0  0  0  0
 21 48  1  0  0  0  0
 22 25  1  0  0  0  0
 22 27  2  0  0  0  0
 23 26  1  0  0  0  0
 24 49  1  0  0  0  0
 25 28  2  0  0  0  0
 26 50  1  0  0  0  0
 26 51  1  0  0  0  0
 27 29  1  0  0  0  0
 27 52  1  0  0  0  0
 28 30  1  0  0  0  0
 28 53  1  0  0  0  0
 29 30  2  0  0  0  0
 29 54  1  0  0  0  0
 30 55  1  0  0  0  0
M  END
> <PUBCHEM_COMPOUND_CID>
62705331

> <PUBCHEM_COMPOUND_CANONICALIZED>
1

> <PUBCHEM_CACTVS_COMPLEXITY>
638

> <PUBCHEM_CACTVS_HBOND_ACCEPTOR>
5

> <PUBCHEM_CACTVS_HBOND_DONOR>
1

> <PUBCHEM_CACTVS_ROTATABLE_BOND>
5

> <PUBCHEM_CACTVS_SUBSKEYS>
AAADceB7sAAAAAAAAAAAAAAAAAAAAWAAAAA8WLEAAAAAAFixwAAAHgAQAAAACCzhkgY9xpPIFACoADV3VAKCiCAxMiAI2CB/fJiOZmLE8d+XPCjs1hPY6CeQQAAAAAAAAAAAEAAAAAAAAAAgAAAAAAAAAA==

> <PUBCHEM_IUPAC_OPENEYE_NAME>
4-[3-[4-(2-oxo-1H-imidazo[4,5-c]pyridin-3-yl)-1-piperidyl]propyl]-1,4-benzoxazin-3-one

> <PUBCHEM_IUPAC_CAS_NAME>
4-[3-[4-(2-oxo-1H-imidazo[4,5-c]pyridin-3-yl)-1-piperidinyl]propyl]-1,4-benzoxazin-3-one

> <PUBCHEM_IUPAC_NAME_MARKUP>
4-[3-[4-(2-oxo-1<I>H</I>-imidazo[4,5-c]pyridin-3-yl)piperidin-1-yl]propyl]-1,4-benzoxazin-3-one

> <PUBCHEM_IUPAC_NAME>
4-[3-[4-(2-oxo-1H-imidazo[4,5-c]pyridin-3-yl)piperidin-1-yl]propyl]-1,4-benzoxazin-3-one

> <PUBCHEM_IUPAC_SYSTEMATIC_NAME>
4-[3-[4-(2-oxidanylidene-1H-imidazo[4,5-c]pyridin-3-yl)piperidin-1-yl]propyl]-1,4-benzoxazin-3-one

> <PUBCHEM_IUPAC_TRADITIONAL_NAME>
4-[3-[4-(2-keto-1H-imidazo[4,5-c]pyridin-3-yl)piperidino]propyl]-1,4-benzoxazin-3-one

> <PUBCHEM_IUPAC_INCHI>
InChI=1S/C22H25N5O3/c28-21-15-30-20-5-2-1-4-18(20)26(21)11-3-10-25-12-7-16(8-13-25)27-19-14-23-9-6-17(19)24-22(27)29/h1-2,4-6,9,14,16H,3,7-8,10-13,15H2,(H,24,29)

> <PUBCHEM_IUPAC_INCHIKEY>
OMSMDLGOLRRGGT-UHFFFAOYSA-N

> <PUBCHEM_XLOGP3_AA>
1.5

> <PUBCHEM_EXACT_MASS>
407.19573968

> <PUBCHEM_MOLECULAR_FORMULA>
C22H25N5O3

> <PUBCHEM_MOLECULAR_WEIGHT>
407.5

> <PUBCHEM_OPENEYE_CAN_SMILES>
C1CN(CCC1N2C3=C(C=CN=C3)NC2=O)CCCN4C(=O)COC5=CC=CC=C54

> <PUBCHEM_OPENEYE_ISO_SMILES>
C1CN(CCC1N2C3=C(C=CN=C3)NC2=O)CCCN4C(=O)COC5=CC=CC=C54

> <PUBCHEM_CACTVS_TPSA>
78

> <PUBCHEM_MONOISOTOPIC_WEIGHT>
407.19573968

> <PUBCHEM_TOTAL_CHARGE>
0

> <PUBCHEM_HEAVY_ATOM_COUNT>
30

> <PUBCHEM_ATOM_DEF_STEREO_COUNT>
0

> <PUBCHEM_ATOM_UDEF_STEREO_COUNT>
0

> <PUBCHEM_BOND_DEF_STEREO_COUNT>
0

> <PUBCHEM_BOND_UDEF_STEREO_COUNT>
0

> <PUBCHEM_ISOTOPIC_ATOM_COUNT>
0

> <PUBCHEM_COMPONENT_COUNT>
1

> <PUBCHEM_CACTVS_TAUTO_COUNT>
-1

> <PUBCHEM_COORDINATE_TYPE>
1
5
255

> <PUBCHEM_BONDANNOTATIONS>
16  19  8
16  20  8
19  21  8
21  24  8
22  25  8
22  27  8
25  28  8
27  29  8
28  30  8
29  30  8
5  16  8
5  17  8
6  17  8
6  19  8
8  20  8
8  24  8

$$$$
