146025778
  -OEChem-09292322012D

 55 57  0     1  0  0  0  0  0999 V2000
    2.0000    0.2085    0.0000 Cl  0  0  0  0  0  0  0  0  0  0  0  0
   12.4583    0.2327    0.0000 O   0  0  0  0  0  0  0  0  0  0  0  0
    6.3961    0.7327    0.0000 N   0  0  3  0  0  0  0  0  0  0  0  0
   11.5923   -1.2673    0.0000 N   0  0  0  0  0  0  0  0  0  0  0  0
   13.3244   -1.2673    0.0000 N   0  0  0  0  0  0  0  0  0  0  0  0
    8.9942    0.2327    0.0000 C   0  0  0  0  0  0  0  0  0  0  0  0
    9.8602    0.7327    0.0000 C   0  0  0  0  0  0  0  0  0  0  0  0
    8.9942   -0.7673    0.0000 C   0  0  0  0  0  0  0  0  0  0  0  0
   10.7263   -0.7673    0.0000 C   0  0  0  0  0  0  0  0  0  0  0  0
   10.7263    0.2327    0.0000 C   0  0  0  0  0  0  0  0  0  0  0  0
    9.8602   -1.2673    0.0000 C   0  0  0  0  0  0  0  0  0  0  0  0
    8.1282    0.7327    0.0000 C   0  0  0  0  0  0  0  0  0  0  0  0
    7.2622    0.2327    0.0000 C   0  0  0  0  0  0  0  0  0  0  0  0
    6.3961    1.7327    0.0000 C   0  0  0  0  0  0  0  0  0  0  0  0
    5.5301    0.2327    0.0000 C   0  0  0  0  0  0  0  0  0  0  0  0
    5.5301    2.2327    0.0000 C   0  0  0  0  0  0  0  0  0  0  0  0
    4.6641    0.7327    0.0000 C   0  0  0  0  0  0  0  0  0  0  0  0
    4.6641    1.7327    0.0000 C   0  0  0  0  0  0  0  0  0  0  0  0
   12.4583   -0.7673    0.0000 C   0  0  0  0  0  0  0  0  0  0  0  0
    3.7702    0.1980    0.0000 C   0  0  0  0  0  0  0  0  0  0  0  0
    3.7702    2.2673    0.0000 C   0  0  0  0  0  0  0  0  0  0  0  0
    2.8641    0.7119    0.0000 C   0  0  0  0  0  0  0  0  0  0  0  0
    2.8641    1.7535    0.0000 C   0  0  0  0  0  0  0  0  0  0  0  0
   14.1904   -0.7673    0.0000 C   0  0  0  0  0  0  0  0  0  0  0  0
   13.3244   -2.2673    0.0000 C   0  0  0  0  0  0  0  0  0  0  0  0
    8.4573   -0.0773    0.0000 H   0  0  0  0  0  0  0  0  0  0  0  0
   10.2588    1.2076    0.0000 H   0  0  0  0  0  0  0  0  0  0  0  0
    9.4617    1.2076    0.0000 H   0  0  0  0  0  0  0  0  0  0  0  0
    8.3836   -0.6597    0.0000 H   0  0  0  0  0  0  0  0  0  0  0  0
    8.7822   -1.3499    0.0000 H   0  0  0  0  0  0  0  0  0  0  0  0
   10.7263   -1.3873    0.0000 H   0  0  0  0  0  0  0  0  0  0  0  0
   11.3369    0.1250    0.0000 H   0  0  0  0  0  0  0  0  0  0  0  0
   10.9383    0.8153    0.0000 H   0  0  0  0  0  0  0  0  0  0  0  0
    9.4617   -1.7423    0.0000 H   0  0  0  0  0  0  0  0  0  0  0  0
   10.2588   -1.7423    0.0000 H   0  0  0  0  0  0  0  0  0  0  0  0
    8.5267    1.2076    0.0000 H   0  0  0  0  0  0  0  0  0  0  0  0
    7.7297    1.2076    0.0000 H   0  0  0  0  0  0  0  0  0  0  0  0
    6.8636   -0.2423    0.0000 H   0  0  0  0  0  0  0  0  0  0  0  0
    7.6607   -0.2423    0.0000 H   0  0  0  0  0  0  0  0  0  0  0  0
   11.5923   -1.8873    0.0000 H   0  0  0  0  0  0  0  0  0  0  0  0
    7.0067    1.6250    0.0000 H   0  0  0  0  0  0  0  0  0  0  0  0
    6.6082    2.3153    0.0000 H   0  0  0  0  0  0  0  0  0  0  0  0
    5.1316   -0.2423    0.0000 H   0  0  0  0  0  0  0  0  0  0  0  0
    5.9286   -0.2423    0.0000 H   0  0  0  0  0  0  0  0  0  0  0  0
    5.9286    2.7076    0.0000 H   0  0  0  0  0  0  0  0  0  0  0  0
    5.1316    2.7076    0.0000 H   0  0  0  0  0  0  0  0  0  0  0  0
    3.7773   -0.4220    0.0000 H   0  0  0  0  0  0  0  0  0  0  0  0
    3.7773    2.8873    0.0000 H   0  0  0  0  0  0  0  0  0  0  0  0
    2.3284    2.0656    0.0000 H   0  0  0  0  0  0  0  0  0  0  0  0
   14.5004   -1.3043    0.0000 H   0  0  0  0  0  0  0  0  0  0  0  0
   14.7273   -0.4573    0.0000 H   0  0  0  0  0  0  0  0  0  0  0  0
   13.8804   -0.2304    0.0000 H   0  0  0  0  0  0  0  0  0  0  0  0
   12.7044   -2.2673    0.0000 H   0  0  0  0  0  0  0  0  0  0  0  0
   13.3244   -2.8873    0.0000 H   0  0  0  0  0  0  0  0  0  0  0  0
   13.9444   -2.2673    0.0000 H   0  0  0  0  0  0  0  0  0  0  0  0
  1 22  1  0  0  0  0
  2 19  2  0  0  0  0
  3 13  1  0  0  0  0
  3 14  1  0  0  0  0
  3 15  1  0  0  0  0
  4  9  1  0  0  0  0
  4 19  1  0  0  0  0
  4 40  1  0  0  0  0
  5 19  1  0  0  0  0
  5 24  1  0  0  0  0
  5 25  1  0  0  0  0
  6  7  1  0  0  0  0
  6  8  1  0  0  0  0
  6 12  1  0  0  0  0
  6 26  1  0  0  0  0
  7 10  1  0  0  0  0
  7 27  1  0  0  0  0
  7 28  1  0  0  0  0
  8 11  1  0  0  0  0
  8 29  1  0  0  0  0
  8 30  1  0  0  0  0
  9 10  1  0  0  0  0
  9 11  1  0  0  0  0
  9 31  1  0  0  0  0
 10 32  1  0  0  0  0
 10 33  1  0  0  0  0
 11 34  1  0  0  0  0
 11 35  1  0  0  0  0
 12 13  1  0  0  0  0
 12 36  1  0  0  0  0
 12 37  1  0  0  0  0
 13 38  1  0  0  0  0
 13 39  1  0  0  0  0
 14 16  1  0  0  0  0
 14 41  1  0  0  0  0
 14 42  1  0  0  0  0
 15 17  1  0  0  0  0
 15 43  1  0  0  0  0
 15 44  1  0  0  0  0
 16 18  1  0  0  0  0
 16 45  1  0  0  0  0
 16 46  1  0  0  0  0
 17 18  2  0  0  0  0
 17 20  1  0  0  0  0
 18 21  1  0  0  0  0
 20 22  2  0  0  0  0
 20 47  1  0  0  0  0
 21 23  2  0  0  0  0
 21 48  1  0  0  0  0
 22 23  1  0  0  0  0
 23 49  1  0  0  0  0
 24 50  1  0  0  0  0
 24 51  1  0  0  0  0
 24 52  1  0  0  0  0
 25 53  1  0  0  0  0
 25 54  1  0  0  0  0
 25 55  1  0  0  0  0
M  END
> <PUBCHEM_COMPOUND_CID>
146025778

> <PUBCHEM_COMPOUND_CANONICALIZED>
1

> <PUBCHEM_CACTVS_COMPLEXITY>
437

> <PUBCHEM_CACTVS_HBOND_ACCEPTOR>
2

> <PUBCHEM_CACTVS_HBOND_DONOR>
1

> <PUBCHEM_CACTVS_ROTATABLE_BOND>
4

> <PUBCHEM_CACTVS_SUBSKEYS>
AAADceB7IAAEAAAAAAAAAAAAAAAAAAAAAAA8YIAAAAAAAACxAAAAHgIQAAAADSrBGCQzAIPAAACIAiBCEACCAAAgBQAIiIAIBoiIICKBkxGEIAholgKIiAcQgIAOhAAAIAAQAAAYAABAACAAAAAAAAAAAA==

> <PUBCHEM_IUPAC_OPENEYE_NAME>
3-[4-[2-(7-chloro-3,4-dihydro-1H-isoquinolin-2-yl)ethyl]cyclohexyl]-1,1-dimethyl-urea

> <PUBCHEM_IUPAC_CAS_NAME>
3-[4-[2-(7-chloro-3,4-dihydro-1H-isoquinolin-2-yl)ethyl]cyclohexyl]-1,1-dimethylurea

> <PUBCHEM_IUPAC_NAME_MARKUP>
3-[4-[2-(7-chloro-3,4-dihydro-1<I>H</I>-isoquinolin-2-yl)ethyl]cyclohexyl]-1,1-dimethylurea

> <PUBCHEM_IUPAC_NAME>
3-[4-[2-(7-chloro-3,4-dihydro-1H-isoquinolin-2-yl)ethyl]cyclohexyl]-1,1-dimethylurea

> <PUBCHEM_IUPAC_SYSTEMATIC_NAME>
3-[4-[2-(7-chloranyl-3,4-dihydro-1H-isoquinolin-2-yl)ethyl]cyclohexyl]-1,1-dimethyl-urea

> <PUBCHEM_IUPAC_TRADITIONAL_NAME>
3-[4-[2-(7-chloro-3,4-dihydro-1H-isoquinolin-2-yl)ethyl]cyclohexyl]-1,1-dimethyl-urea

> <PUBCHEM_IUPAC_INCHI>
InChI=1S/C20H30ClN3O/c1-23(2)20(25)22-19-7-3-15(4-8-19)9-11-24-12-10-16-5-6-18(21)13-17(16)14-24/h5-6,13,15,19H,3-4,7-12,14H2,1-2H3,(H,22,25)

> <PUBCHEM_IUPAC_INCHIKEY>
BVRQFYBVYHOVEQ-UHFFFAOYSA-N

> <PUBCHEM_XLOGP3_AA>
3.6

> <PUBCHEM_EXACT_MASS>
363.2077403

> <PUBCHEM_MOLECULAR_FORMULA>
C20H30ClN3O

> <PUBCHEM_MOLECULAR_WEIGHT>
363.9

> <PUBCHEM_OPENEYE_CAN_SMILES>
CN(C)C(=O)NC1CCC(CC1)CCN2CCC3=C(C2)C=C(C=C3)Cl

> <PUBCHEM_OPENEYE_ISO_SMILES>
CN(C)C(=O)NC1CCC(CC1)CCN2CCC3=C(C2)C=C(C=C3)Cl

> <PUBCHEM_CACTVS_TPSA>
35.6

> <PUBCHEM_MONOISOTOPIC_WEIGHT>
363.2077403

> <PUBCHEM_TOTAL_CHARGE>
0

> <PUBCHEM_HEAVY_ATOM_COUNT>
25

> <PUBCHEM_ATOM_DEF_STEREO_COUNT>
0

> <PUBCHEM_ATOM_UDEF_STEREO_COUNT>
0

> <PUBCHEM_BOND_DEF_STEREO_COUNT>
0

> <PUBCHEM_BOND_UDEF_STEREO_COUNT>
0

> <PUBCHEM_ISOTOPIC_ATOM_COUNT>
0

> <PUBCHEM_COMPONENT_COUNT>
1

> <PUBCHEM_CACTVS_TAUTO_COUNT>
-1

> <PUBCHEM_COORDINATE_TYPE>
1
5
255

> <PUBCHEM_BONDANNOTATIONS>
17  18  8
17  20  8
18  21  8
20  22  8
21  23  8
22  23  8

$$$$
