57326790
  -OEChem-09292322072D

116123  0     0  0  0  0  0  0999 V2000
   13.9165   -6.3271    0.0000 Cl  0  0  0  0  0  0  0  0  0  0  0  0
    8.7204    6.3270    0.0000 Cl  0  0  0  0  0  0  0  0  0  0  0  0
   10.9451   -3.5000    0.0000 O   0  0  0  0  0  0  0  0  0  0  0  0
    4.0170    3.5000    0.0000 O   0  0  0  0  0  0  0  0  0  0  0  0
    9.1452   -8.0916    0.0000 N   0  0  0  0  0  0  0  0  0  0  0  0
    3.9491    8.0916    0.0000 N   0  0  0  0  0  0  0  0  0  0  0  0
    8.2774   -9.8936    0.0000 N   0  0  0  0  0  0  0  0  0  0  0  0
    3.0814    9.8936    0.0000 N   0  0  0  0  0  0  0  0  0  0  0  0
   10.0791   -5.0000    0.0000 N   0  0  0  0  0  0  0  0  0  0  0  0
    4.8830    5.0000    0.0000 N   0  0  0  0  0  0  0  0  0  0  0  0
   10.5791   -7.1907    0.0000 N   0  0  0  0  0  0  0  0  0  0  0  0
    5.3830    7.1906    0.0000 N   0  0  0  0  0  0  0  0  0  0  0  0
    9.7085   -8.9179    0.0000 C   0  0  0  0  0  0  0  0  0  0  0  0
    8.1480   -8.1664    0.0000 C   0  0  0  0  0  0  0  0  0  0  0  0
    2.9519    8.1664    0.0000 C   0  0  0  0  0  0  0  0  0  0  0  0
    4.5125    8.9179    0.0000 C   0  0  0  0  0  0  0  0  0  0  0  0
    9.2746   -9.8188    0.0000 C   0  0  0  0  0  0  0  0  0  0  0  0
    7.7141   -9.0673    0.0000 C   0  0  0  0  0  0  0  0  0  0  0  0
    2.5180    9.0673    0.0000 C   0  0  0  0  0  0  0  0  0  0  0  0
    4.0786    9.8188    0.0000 C   0  0  0  0  0  0  0  0  0  0  0  0
    9.5790   -7.1907    0.0000 C   0  0  0  0  0  0  0  0  0  0  0  0
    4.3830    7.1906    0.0000 C   0  0  0  0  0  0  0  0  0  0  0  0
    7.4810   -0.5000    0.0000 C   0  0  0  0  0  0  0  0  0  0  0  0
    7.4810    0.5000    0.0000 C   0  0  0  0  0  0  0  0  0  0  0  0
    8.3470   -1.0000    0.0000 C   0  0  0  0  0  0  0  0  0  0  0  0
    6.6150    1.0000    0.0000 C   0  0  0  0  0  0  0  0  0  0  0  0
    8.3470   -2.0000    0.0000 C   0  0  0  0  0  0  0  0  0  0  0  0
    6.6150    2.0000    0.0000 C   0  0  0  0  0  0  0  0  0  0  0  0
    8.9556   -6.4088    0.0000 C   0  0  0  0  0  0  0  0  0  0  0  0
    3.7595    6.4088    0.0000 C   0  0  0  0  0  0  0  0  0  0  0  0
    9.2131   -2.5000    0.0000 C   0  0  0  0  0  0  0  0  0  0  0  0
    5.7490    2.5000    0.0000 C   0  0  0  0  0  0  0  0  0  0  0  0
    9.1781   -5.4339    0.0000 C   0  0  0  0  0  0  0  0  0  0  0  0
    3.9820    5.4339    0.0000 C   0  0  0  0  0  0  0  0  0  0  0  0
    7.8435  -10.7945    0.0000 C   0  0  0  0  0  0  0  0  0  0  0  0
    2.6475   10.7945    0.0000 C   0  0  0  0  0  0  0  0  0  0  0  0
    9.2131   -3.5000    0.0000 C   0  0  0  0  0  0  0  0  0  0  0  0
    5.7490    3.5000    0.0000 C   0  0  0  0  0  0  0  0  0  0  0  0
   10.9800   -5.4339    0.0000 C   0  0  0  0  0  0  0  0  0  0  0  0
    5.7840    5.4339    0.0000 C   0  0  0  0  0  0  0  0  0  0  0  0
   10.0791   -4.0000    0.0000 C   0  0  0  0  0  0  0  0  0  0  0  0
    4.8830    4.0000    0.0000 C   0  0  0  0  0  0  0  0  0  0  0  0
   11.2025   -6.4089    0.0000 C   0  0  0  0  0  0  0  0  0  0  0  0
    6.0065    6.4088    0.0000 C   0  0  0  0  0  0  0  0  0  0  0  0
    7.9651   -6.7312    0.0000 C   0  0  0  0  0  0  0  0  0  0  0  0
    2.7690    6.7312    0.0000 C   0  0  0  0  0  0  0  0  0  0  0  0
    8.4256   -4.7137    0.0000 C   0  0  0  0  0  0  0  0  0  0  0  0
    3.2295    4.7137    0.0000 C   0  0  0  0  0  0  0  0  0  0  0  0
   11.7326   -4.7138    0.0000 C   0  0  0  0  0  0  0  0  0  0  0  0
    6.5365    4.7137    0.0000 C   0  0  0  0  0  0  0  0  0  0  0  0
    7.1961   -6.0286    0.0000 C   0  0  0  0  0  0  0  0  0  0  0  0
    2.0000    6.0286    0.0000 C   0  0  0  0  0  0  0  0  0  0  0  0
   12.1930   -6.7312    0.0000 C   0  0  0  0  0  0  0  0  0  0  0  0
    6.9970    6.7311    0.0000 C   0  0  0  0  0  0  0  0  0  0  0  0
    7.4278   -5.0131    0.0000 C   0  0  0  0  0  0  0  0  0  0  0  0
    2.2318    5.0131    0.0000 C   0  0  0  0  0  0  0  0  0  0  0  0
   12.7303   -5.0131    0.0000 C   0  0  0  0  0  0  0  0  0  0  0  0
    7.5342    5.0130    0.0000 C   0  0  0  0  0  0  0  0  0  0  0  0
   12.9621   -6.0286    0.0000 C   0  0  0  0  0  0  0  0  0  0  0  0
    7.7660    6.0286    0.0000 C   0  0  0  0  0  0  0  0  0  0  0  0
   10.2119   -9.2798    0.0000 H   0  0  0  0  0  0  0  0  0  0  0  0
   10.1523   -8.4850    0.0000 H   0  0  0  0  0  0  0  0  0  0  0  0
    8.2097   -7.5494    0.0000 H   0  0  0  0  0  0  0  0  0  0  0  0
    7.5511   -7.9984    0.0000 H   0  0  0  0  0  0  0  0  0  0  0  0
    2.3551    7.9984    0.0000 H   0  0  0  0  0  0  0  0  0  0  0  0
    3.0137    7.5494    0.0000 H   0  0  0  0  0  0  0  0  0  0  0  0
    4.9563    8.4850    0.0000 H   0  0  0  0  0  0  0  0  0  0  0  0
    5.0159    9.2798    0.0000 H   0  0  0  0  0  0  0  0  0  0  0  0
    9.2128  -10.4358    0.0000 H   0  0  0  0  0  0  0  0  0  0  0  0
    9.8714   -9.9868    0.0000 H   0  0  0  0  0  0  0  0  0  0  0  0
    7.2107   -8.7054    0.0000 H   0  0  0  0  0  0  0  0  0  0  0  0
    7.2702   -9.5002    0.0000 H   0  0  0  0  0  0  0  0  0  0  0  0
    2.0742    9.5002    0.0000 H   0  0  0  0  0  0  0  0  0  0  0  0
    2.0146    8.7054    0.0000 H   0  0  0  0  0  0  0  0  0  0  0  0
    4.6754    9.9867    0.0000 H   0  0  0  0  0  0  0  0  0  0  0  0
    4.0168   10.4357    0.0000 H   0  0  0  0  0  0  0  0  0  0  0  0
    6.8704   -0.3923    0.0000 H   0  0  0  0  0  0  0  0  0  0  0  0
    7.2690   -1.0826    0.0000 H   0  0  0  0  0  0  0  0  0  0  0  0
    8.0916    0.3923    0.0000 H   0  0  0  0  0  0  0  0  0  0  0  0
    7.6931    1.0826    0.0000 H   0  0  0  0  0  0  0  0  0  0  0  0
    8.9576   -1.1077    0.0000 H   0  0  0  0  0  0  0  0  0  0  0  0
    8.5591   -0.4174    0.0000 H   0  0  0  0  0  0  0  0  0  0  0  0
    6.0044    1.1077    0.0000 H   0  0  0  0  0  0  0  0  0  0  0  0
    6.4030    0.4174    0.0000 H   0  0  0  0  0  0  0  0  0  0  0  0
    7.7365   -1.8924    0.0000 H   0  0  0  0  0  0  0  0  0  0  0  0
    8.1350   -2.5826    0.0000 H   0  0  0  0  0  0  0  0  0  0  0  0
    7.2256    1.8923    0.0000 H   0  0  0  0  0  0  0  0  0  0  0  0
    6.8271    2.5826    0.0000 H   0  0  0  0  0  0  0  0  0  0  0  0
    9.8236   -2.6077    0.0000 H   0  0  0  0  0  0  0  0  0  0  0  0
    9.4251   -1.9174    0.0000 H   0  0  0  0  0  0  0  0  0  0  0  0
    5.1384    2.6077    0.0000 H   0  0  0  0  0  0  0  0  0  0  0  0
    5.5369    1.9174    0.0000 H   0  0  0  0  0  0  0  0  0  0  0  0
    7.2849  -10.5255    0.0000 H   0  0  0  0  0  0  0  0  0  0  0  0
    7.5745  -11.3531    0.0000 H   0  0  0  0  0  0  0  0  0  0  0  0
    8.4021  -11.0636    0.0000 H   0  0  0  0  0  0  0  0  0  0  0  0
    3.2061   11.0635    0.0000 H   0  0  0  0  0  0  0  0  0  0  0  0
    2.3785   11.3531    0.0000 H   0  0  0  0  0  0  0  0  0  0  0  0
    2.0889   10.5255    0.0000 H   0  0  0  0  0  0  0  0  0  0  0  0
    8.6025   -3.3924    0.0000 H   0  0  0  0  0  0  0  0  0  0  0  0
    9.0010   -4.0826    0.0000 H   0  0  0  0  0  0  0  0  0  0  0  0
    6.3596    3.3923    0.0000 H   0  0  0  0  0  0  0  0  0  0  0  0
    5.9611    4.0826    0.0000 H   0  0  0  0  0  0  0  0  0  0  0  0
    7.8341   -7.3372    0.0000 H   0  0  0  0  0  0  0  0  0  0  0  0
    2.6380    7.3372    0.0000 H   0  0  0  0  0  0  0  0  0  0  0  0
    8.5705   -4.1109    0.0000 H   0  0  0  0  0  0  0  0  0  0  0  0
    3.3744    4.1109    0.0000 H   0  0  0  0  0  0  0  0  0  0  0  0
   11.5877   -4.1109    0.0000 H   0  0  0  0  0  0  0  0  0  0  0  0
    6.3916    4.1109    0.0000 H   0  0  0  0  0  0  0  0  0  0  0  0
    6.6043   -6.2136    0.0000 H   0  0  0  0  0  0  0  0  0  0  0  0
    1.4083    6.2136    0.0000 H   0  0  0  0  0  0  0  0  0  0  0  0
   12.3240   -7.3372    0.0000 H   0  0  0  0  0  0  0  0  0  0  0  0
    7.1280    7.3371    0.0000 H   0  0  0  0  0  0  0  0  0  0  0  0
    6.9750   -4.5896    0.0000 H   0  0  0  0  0  0  0  0  0  0  0  0
    1.7789    4.5896    0.0000 H   0  0  0  0  0  0  0  0  0  0  0  0
   13.1832   -4.5896    0.0000 H   0  0  0  0  0  0  0  0  0  0  0  0
    7.9871    4.5896    0.0000 H   0  0  0  0  0  0  0  0  0  0  0  0
  1 59  1  0  0  0  0
  2 60  1  0  0  0  0
  3 41  2  0  0  0  0
  4 42  2  0  0  0  0
  5 13  1  0  0  0  0
  5 14  1  0  0  0  0
  5 21  1  0  0  0  0
  6 15  1  0  0  0  0
  6 16  1  0  0  0  0
  6 22  1  0  0  0  0
  7 17  1  0  0  0  0
  7 18  1  0  0  0  0
  7 35  1  0  0  0  0
  8 19  1  0  0  0  0
  8 20  1  0  0  0  0
  8 36  1  0  0  0  0
  9 33  1  0  0  0  0
  9 39  1  0  0  0  0
  9 41  1  0  0  0  0
 10 34  1  0  0  0  0
 10 40  1  0  0  0  0
 10 42  1  0  0  0  0
 11 21  2  0  0  0  0
 11 43  1  0  0  0  0
 12 22  2  0  0  0  0
 12 44  1  0  0  0  0
 13 17  1  0  0  0  0
 13 61  1  0  0  0  0
 13 62  1  0  0  0  0
 14 18  1  0  0  0  0
 14 63  1  0  0  0  0
 14 64  1  0  0  0  0
 15 19  1  0  0  0  0
 15 65  1  0  0  0  0
 15 66  1  0  0  0  0
 16 20  1  0  0  0  0
 16 67  1  0  0  0  0
 16 68  1  0  0  0  0
 17 69  1  0  0  0  0
 17 70  1  0  0  0  0
 18 71  1  0  0  0  0
 18 72  1  0  0  0  0
 19 73  1  0  0  0  0
 19 74  1  0  0  0  0
 20 75  1  0  0  0  0
 20 76  1  0  0  0  0
 21 29  1  0  0  0  0
 22 30  1  0  0  0  0
 23 24  1  0  0  0  0
 23 25  1  0  0  0  0
 23 77  1  0  0  0  0
 23 78  1  0  0  0  0
 24 26  1  0  0  0  0
 24 79  1  0  0  0  0
 24 80  1  0  0  0  0
 25 27  1  0  0  0  0
 25 81  1  0  0  0  0
 25 82  1  0  0  0  0
 26 28  1  0  0  0  0
 26 83  1  0  0  0  0
 26 84  1  0  0  0  0
 27 31  1  0  0  0  0
 27 85  1  0  0  0  0
 27 86  1  0  0  0  0
 28 32  1  0  0  0  0
 28 87  1  0  0  0  0
 28 88  1  0  0  0  0
 29 33  1  0  0  0  0
 29 45  2  0  0  0  0
 30 34  1  0  0  0  0
 30 46  2  0  0  0  0
 31 37  1  0  0  0  0
 31 89  1  0  0  0  0
 31 90  1  0  0  0  0
 32 38  1  0  0  0  0
 32 91  1  0  0  0  0
 32 92  1  0  0  0  0
 33 47  2  0  0  0  0
 34 48  2  0  0  0  0
 35 93  1  0  0  0  0
 35 94  1  0  0  0  0
 35 95  1  0  0  0  0
 36 96  1  0  0  0  0
 36 97  1  0  0  0  0
 36 98  1  0  0  0  0
 37 41  1  0  0  0  0
 37 99  1  0  0  0  0
 37100  1  0  0  0  0
 38 42  1  0  0  0  0
 38101  1  0  0  0  0
 38102  1  0  0  0  0
 39 43  2  0  0  0  0
 39 49  1  0  0  0  0
 40 44  2  0  0  0  0
 40 50  1  0  0  0  0
 43 53  1  0  0  0  0
 44 54  1  0  0  0  0
 45 51  1  0  0  0  0
 45103  1  0  0  0  0
 46 52  1  0  0  0  0
 46104  1  0  0  0  0
 47 55  1  0  0  0  0
 47105  1  0  0  0  0
 48 56  1  0  0  0  0
 48106  1  0  0  0  0
 49 57  2  0  0  0  0
 49107  1  0  0  0  0
 50 58  2  0  0  0  0
 50108  1  0  0  0  0
 51 55  2  0  0  0  0
 51109  1  0  0  0  0
 52 56  2  0  0  0  0
 52110  1  0  0  0  0
 53 59  2  0  0  0  0
 53111  1  0  0  0  0
 54 60  2  0  0  0  0
 54112  1  0  0  0  0
 55113  1  0  0  0  0
 56114  1  0  0  0  0
 57 59  1  0  0  0  0
 57115  1  0  0  0  0
 58 60  1  0  0  0  0
 58116  1  0  0  0  0
M  END
> <PUBCHEM_COMPOUND_CID>
57326790

> <PUBCHEM_COMPOUND_CANONICALIZED>
1

> <PUBCHEM_CACTVS_COMPLEXITY>
1370

> <PUBCHEM_CACTVS_HBOND_ACCEPTOR>
6

> <PUBCHEM_CACTVS_HBOND_DONOR>
0

> <PUBCHEM_CACTVS_ROTATABLE_BOND>
13

> <PUBCHEM_CACTVS_SUBSKEYS>
AAADcfB/8AAGAAAAAAAAAAAAAAAAAAAAAAA8eMGCBAgAAAABVAAAHgIAAAAADArBmCQzwIMAAACoAidydACCAAEhBwAJiAEodpgIYPLB25GUIAhghADIyAcYiICOAABAAAICACAAAIAABAQAQAAAAAAAAA==

> <PUBCHEM_IUPAC_OPENEYE_NAME>
1,12-bis[3-chloro-6-(4-methylpiperazin-1-yl)benzo[b][1,4]benzodiazepin-11-yl]dodecane-1,12-dione

> <PUBCHEM_IUPAC_CAS_NAME>
1,12-bis[3-chloro-6-(4-methyl-1-piperazinyl)-11-benzo[b][1,4]benzodiazepinyl]dodecane-1,12-dione

> <PUBCHEM_IUPAC_NAME_MARKUP>
1,12-bis[3-chloro-6-(4-methylpiperazin-1-yl)benzo[b][1,4]benzodiazepin-11-yl]dodecane-1,12-dione

> <PUBCHEM_IUPAC_NAME>
1,12-bis[3-chloro-6-(4-methylpiperazin-1-yl)benzo[b][1,4]benzodiazepin-11-yl]dodecane-1,12-dione

> <PUBCHEM_IUPAC_SYSTEMATIC_NAME>
1,12-bis[3-chloranyl-6-(4-methylpiperazin-1-yl)benzo[b][1,4]benzodiazepin-11-yl]dodecane-1,12-dione

> <PUBCHEM_IUPAC_TRADITIONAL_NAME>
1,12-bis[3-chloro-6-(4-methylpiperazino)benzo[b][1,4]benzodiazepin-11-yl]dodecane-1,12-dione

> <PUBCHEM_IUPAC_INCHI>
InChI=1S/C48H56Cl2N8O2/c1-53-25-29-55(30-26-53)47-37-15-11-13-17-41(37)57(43-23-21-35(49)33-39(43)51-47)45(59)19-9-7-5-3-4-6-8-10-20-46(60)58-42-18-14-12-16-38(42)48(56-31-27-54(2)28-32-56)52-40-34-36(50)22-24-44(40)58/h11-18,21-24,33-34H,3-10,19-20,25-32H2,1-2H3

> <PUBCHEM_IUPAC_INCHIKEY>
RDOOBQQSMGKBRV-UHFFFAOYSA-N

> <PUBCHEM_XLOGP3_AA>
8.5

> <PUBCHEM_EXACT_MASS>
846.3903284

> <PUBCHEM_MOLECULAR_FORMULA>
C48H56Cl2N8O2

> <PUBCHEM_MOLECULAR_WEIGHT>
847.9

> <PUBCHEM_OPENEYE_CAN_SMILES>
CN1CCN(CC1)C2=NC3=C(C=CC(=C3)Cl)N(C4=CC=CC=C42)C(=O)CCCCCCCCCCC(=O)N5C6=C(C=C(C=C6)Cl)N=C(C7=CC=CC=C75)N8CCN(CC8)C

> <PUBCHEM_OPENEYE_ISO_SMILES>
CN1CCN(CC1)C2=NC3=C(C=CC(=C3)Cl)N(C4=CC=CC=C42)C(=O)CCCCCCCCCCC(=O)N5C6=C(C=C(C=C6)Cl)N=C(C7=CC=CC=C75)N8CCN(CC8)C

> <PUBCHEM_CACTVS_TPSA>
78.3

> <PUBCHEM_MONOISOTOPIC_WEIGHT>
846.3903284

> <PUBCHEM_TOTAL_CHARGE>
0

> <PUBCHEM_HEAVY_ATOM_COUNT>
60

> <PUBCHEM_ATOM_DEF_STEREO_COUNT>
0

> <PUBCHEM_ATOM_UDEF_STEREO_COUNT>
0

> <PUBCHEM_BOND_DEF_STEREO_COUNT>
0

> <PUBCHEM_BOND_UDEF_STEREO_COUNT>
0

> <PUBCHEM_ISOTOPIC_ATOM_COUNT>
0

> <PUBCHEM_COMPONENT_COUNT>
1

> <PUBCHEM_CACTVS_TAUTO_COUNT>
-1

> <PUBCHEM_COORDINATE_TYPE>
1
5
255

> <PUBCHEM_BONDANNOTATIONS>
29  33  8
29  45  8
30  34  8
30  46  8
33  47  8
34  48  8
39  43  8
39  49  8
40  44  8
40  50  8
43  53  8
44  54  8
45  51  8
46  52  8
47  55  8
48  56  8
49  57  8
50  58  8
51  55  8
52  56  8
53  59  8
54  60  8
57  59  8
58  60  8

$$$$
