127029652
  -OEChem-09292322372D

 71 75  0     1  0  0  0  0  0999 V2000
   10.8769    5.6012    0.0000 F   0  0  0  0  0  0  0  0  0  0  0  0
    6.3301    0.3988    0.0000 O   0  0  0  0  0  0  0  0  0  0  0  0
    5.6915    4.0624    0.0000 O   0  0  0  0  0  0  0  0  0  0  0  0
    7.4516    1.0139    0.0000 O   0  0  0  0  0  0  0  0  0  0  0  0
    4.5981   -0.6012    0.0000 N   0  0  0  0  0  0  0  0  0  0  0  0
    4.5981   -2.6012    0.0000 N   0  0  0  0  0  0  0  0  0  0  0  0
    6.3301    2.3988    0.0000 N   0  0  0  0  0  0  0  0  0  0  0  0
    7.9128    2.7352    0.0000 N   0  0  0  0  0  0  0  0  0  0  0  0
    3.7320   -1.1012    0.0000 C   0  0  0  0  0  0  0  0  0  0  0  0
    5.4641   -1.1012    0.0000 C   0  0  0  0  0  0  0  0  0  0  0  0
    3.7320   -2.1012    0.0000 C   0  0  0  0  0  0  0  0  0  0  0  0
    5.4641   -2.1012    0.0000 C   0  0  0  0  0  0  0  0  0  0  0  0
    4.5981    0.3988    0.0000 C   0  0  0  0  0  0  0  0  0  0  0  0
    4.5981   -3.6012    0.0000 C   0  0  0  0  0  0  0  0  0  0  0  0
    5.4641    0.8988    0.0000 C   0  0  3  0  0  0  0  0  0  0  0  0
    5.4641    1.8988    0.0000 C   0  0  0  0  0  0  0  0  0  0  0  0
    7.4128    3.6012    0.0000 C   0  0  3  0  0  0  0  0  0  0  0  0
    3.7320   -4.1012    0.0000 C   0  0  0  0  0  0  0  0  0  0  0  0
    5.4641   -4.1012    0.0000 C   0  0  0  0  0  0  0  0  0  0  0  0
    6.4347    3.3933    0.0000 C   0  0  0  0  0  0  0  0  0  0  0  0
    7.2437    1.9920    0.0000 C   0  0  0  0  0  0  0  0  0  0  0  0
    8.2788    4.1012    0.0000 C   0  0  0  0  0  0  0  0  0  0  0  0
    7.2049    4.5794    0.0000 C   0  0  0  0  0  0  0  0  0  0  0  0
    3.7320   -5.1012    0.0000 C   0  0  0  0  0  0  0  0  0  0  0  0
    5.4641   -5.1012    0.0000 C   0  0  0  0  0  0  0  0  0  0  0  0
    2.8660   -3.6012    0.0000 C   0  0  0  0  0  0  0  0  0  0  0  0
    6.3301   -3.6012    0.0000 C   0  0  0  0  0  0  0  0  0  0  0  0
    8.2788    5.1012    0.0000 C   0  0  0  0  0  0  0  0  0  0  0  0
    9.1448    3.6012    0.0000 C   0  0  0  0  0  0  0  0  0  0  0  0
    2.8660   -5.6012    0.0000 C   0  0  0  0  0  0  0  0  0  0  0  0
    6.3301   -5.6012    0.0000 C   0  0  0  0  0  0  0  0  0  0  0  0
    2.0000   -4.1012    0.0000 C   0  0  0  0  0  0  0  0  0  0  0  0
    7.1962   -4.1012    0.0000 C   0  0  0  0  0  0  0  0  0  0  0  0
    2.0000   -5.1012    0.0000 C   0  0  0  0  0  0  0  0  0  0  0  0
    7.1962   -5.1012    0.0000 C   0  0  0  0  0  0  0  0  0  0  0  0
    9.1448    5.6012    0.0000 C   0  0  0  0  0  0  0  0  0  0  0  0
   10.0109    4.1012    0.0000 C   0  0  0  0  0  0  0  0  0  0  0  0
   10.0109    5.1012    0.0000 C   0  0  0  0  0  0  0  0  0  0  0  0
    3.5200   -0.5186    0.0000 H   0  0  0  0  0  0  0  0  0  0  0  0
    3.1215   -1.2089    0.0000 H   0  0  0  0  0  0  0  0  0  0  0  0
    6.0747   -1.2089    0.0000 H   0  0  0  0  0  0  0  0  0  0  0  0
    5.6762   -0.5186    0.0000 H   0  0  0  0  0  0  0  0  0  0  0  0
    3.1215   -1.9936    0.0000 H   0  0  0  0  0  0  0  0  0  0  0  0
    3.5200   -2.6838    0.0000 H   0  0  0  0  0  0  0  0  0  0  0  0
    5.6762   -2.6838    0.0000 H   0  0  0  0  0  0  0  0  0  0  0  0
    6.0747   -1.9936    0.0000 H   0  0  0  0  0  0  0  0  0  0  0  0
    4.3860    0.9814    0.0000 H   0  0  0  0  0  0  0  0  0  0  0  0
    3.9875    0.2911    0.0000 H   0  0  0  0  0  0  0  0  0  0  0  0
    4.5981   -4.2212    0.0000 H   0  0  0  0  0  0  0  0  0  0  0  0
    5.4641    0.2788    0.0000 H   0  0  0  0  0  0  0  0  0  0  0  0
    5.2520    2.4814    0.0000 H   0  0  0  0  0  0  0  0  0  0  0  0
    4.8535    1.7911    0.0000 H   0  0  0  0  0  0  0  0  0  0  0  0
    8.5294    2.6704    0.0000 H   0  0  0  0  0  0  0  0  0  0  0  0
    7.8113    4.7083    0.0000 H   0  0  0  0  0  0  0  0  0  0  0  0
    7.0760    5.1858    0.0000 H   0  0  0  0  0  0  0  0  0  0  0  0
    6.5984    4.4505    0.0000 H   0  0  0  0  0  0  0  0  0  0  0  0
    6.8671    0.7088    0.0000 H   0  0  0  0  0  0  0  0  0  0  0  0
    4.2690   -5.4112    0.0000 H   0  0  0  0  0  0  0  0  0  0  0  0
    4.9272   -5.4112    0.0000 H   0  0  0  0  0  0  0  0  0  0  0  0
    2.8660   -2.9812    0.0000 H   0  0  0  0  0  0  0  0  0  0  0  0
    6.3301   -2.9812    0.0000 H   0  0  0  0  0  0  0  0  0  0  0  0
    7.7419    5.4112    0.0000 H   0  0  0  0  0  0  0  0  0  0  0  0
    9.1448    2.9812    0.0000 H   0  0  0  0  0  0  0  0  0  0  0  0
    2.8660   -6.2212    0.0000 H   0  0  0  0  0  0  0  0  0  0  0  0
    6.3301   -6.2212    0.0000 H   0  0  0  0  0  0  0  0  0  0  0  0
    1.4631   -3.7912    0.0000 H   0  0  0  0  0  0  0  0  0  0  0  0
    7.7331   -3.7912    0.0000 H   0  0  0  0  0  0  0  0  0  0  0  0
    1.4631   -5.4112    0.0000 H   0  0  0  0  0  0  0  0  0  0  0  0
    7.7331   -5.4112    0.0000 H   0  0  0  0  0  0  0  0  0  0  0  0
    9.1448    6.2212    0.0000 H   0  0  0  0  0  0  0  0  0  0  0  0
   10.5478    3.7912    0.0000 H   0  0  0  0  0  0  0  0  0  0  0  0
  1 38  1  0  0  0  0
  2 15  1  0  0  0  0
  2 57  1  0  0  0  0
  3 20  2  0  0  0  0
  4 21  2  0  0  0  0
  5  9  1  0  0  0  0
  5 10  1  0  0  0  0
  5 13  1  0  0  0  0
  6 11  1  0  0  0  0
  6 12  1  0  0  0  0
  6 14  1  0  0  0  0
  7 16  1  0  0  0  0
  7 20  1  0  0  0  0
  7 21  1  0  0  0  0
  8 17  1  0  0  0  0
  8 21  1  0  0  0  0
  8 53  1  0  0  0  0
  9 11  1  0  0  0  0
  9 39  1  0  0  0  0
  9 40  1  0  0  0  0
 10 12  1  0  0  0  0
 10 41  1  0  0  0  0
 10 42  1  0  0  0  0
 11 43  1  0  0  0  0
 11 44  1  0  0  0  0
 12 45  1  0  0  0  0
 12 46  1  0  0  0  0
 13 15  1  0  0  0  0
 13 47  1  0  0  0  0
 13 48  1  0  0  0  0
 14 18  1  0  0  0  0
 14 19  1  0  0  0  0
 14 49  1  0  0  0  0
 15 16  1  0  0  0  0
 15 50  1  0  0  0  0
 16 51  1  0  0  0  0
 16 52  1  0  0  0  0
 17 20  1  0  0  0  0
 17 22  1  0  0  0  0
 17 23  1  0  0  0  0
 18 24  2  0  0  0  0
 18 26  1  0  0  0  0
 19 25  2  0  0  0  0
 19 27  1  0  0  0  0
 22 28  2  0  0  0  0
 22 29  1  0  0  0  0
 23 54  1  0  0  0  0
 23 55  1  0  0  0  0
 23 56  1  0  0  0  0
 24 30  1  0  0  0  0
 24 58  1  0  0  0  0
 25 31  1  0  0  0  0
 25 59  1  0  0  0  0
 26 32  2  0  0  0  0
 26 60  1  0  0  0  0
 27 33  2  0  0  0  0
 27 61  1  0  0  0  0
 28 36  1  0  0  0  0
 28 62  1  0  0  0  0
 29 37  2  0  0  0  0
 29 63  1  0  0  0  0
 30 34  2  0  0  0  0
 30 64  1  0  0  0  0
 31 35  2  0  0  0  0
 31 65  1  0  0  0  0
 32 34  1  0  0  0  0
 32 66  1  0  0  0  0
 33 35  1  0  0  0  0
 33 67  1  0  0  0  0
 34 68  1  0  0  0  0
 35 69  1  0  0  0  0
 36 38  2  0  0  0  0
 36 70  1  0  0  0  0
 37 38  1  0  0  0  0
 37 71  1  0  0  0  0
M  END
> <PUBCHEM_COMPOUND_CID>
127029652

> <PUBCHEM_COMPOUND_CANONICALIZED>
1

> <PUBCHEM_CACTVS_COMPLEXITY>
783

> <PUBCHEM_CACTVS_HBOND_ACCEPTOR>
6

> <PUBCHEM_CACTVS_HBOND_DONOR>
2

> <PUBCHEM_CACTVS_ROTATABLE_BOND>
8

> <PUBCHEM_CACTVS_SUBSKEYS>
AAADcfB7sQAAAAAAAAAAAAAAAAAAAWAAAAA8YMEAAAAAAAABUAAAHwAQCAAADLzhmA4zAIPAAgCIAiFSEACCAAAgAAAIiAGIBIiKcDKA1TGUIAholyKYiAcYiMCOgAAAAAAAAAAAAAAAAAAAAAAAAAAAAA==

> <PUBCHEM_IUPAC_OPENEYE_NAME>
3-[3-(4-benzhydrylpiperazin-1-yl)-2-hydroxy-propyl]-5-(4-fluorophenyl)-5-methyl-imidazolidine-2,4-dione

> <PUBCHEM_IUPAC_CAS_NAME>
3-[3-[4-(diphenylmethyl)-1-piperazinyl]-2-hydroxypropyl]-5-(4-fluorophenyl)-5-methylimidazolidine-2,4-dione

> <PUBCHEM_IUPAC_NAME_MARKUP>
3-[3-(4-benzhydrylpiperazin-1-yl)-2-hydroxypropyl]-5-(4-fluorophenyl)-5-methylimidazolidine-2,4-dione

> <PUBCHEM_IUPAC_NAME>
3-[3-(4-benzhydrylpiperazin-1-yl)-2-hydroxypropyl]-5-(4-fluorophenyl)-5-methylimidazolidine-2,4-dione

> <PUBCHEM_IUPAC_SYSTEMATIC_NAME>
3-[3-[4-(diphenylmethyl)piperazin-1-yl]-2-oxidanyl-propyl]-5-(4-fluorophenyl)-5-methyl-imidazolidine-2,4-dione

> <PUBCHEM_IUPAC_TRADITIONAL_NAME>
3-[3-(4-benzhydrylpiperazino)-2-hydroxy-propyl]-5-(4-fluorophenyl)-5-methyl-hydantoin

> <PUBCHEM_IUPAC_INCHI>
InChI=1S/C30H33FN4O3/c1-30(24-12-14-25(31)15-13-24)28(37)35(29(38)32-30)21-26(36)20-33-16-18-34(19-17-33)27(22-8-4-2-5-9-22)23-10-6-3-7-11-23/h2-15,26-27,36H,16-21H2,1H3,(H,32,38)

> <PUBCHEM_IUPAC_INCHIKEY>
NPUZJIOVBIDKGO-UHFFFAOYSA-N

> <PUBCHEM_XLOGP3_AA>
3.5

> <PUBCHEM_EXACT_MASS>
516.25366909

> <PUBCHEM_MOLECULAR_FORMULA>
C30H33FN4O3

> <PUBCHEM_MOLECULAR_WEIGHT>
516.6

> <PUBCHEM_OPENEYE_CAN_SMILES>
CC1(C(=O)N(C(=O)N1)CC(CN2CCN(CC2)C(C3=CC=CC=C3)C4=CC=CC=C4)O)C5=CC=C(C=C5)F

> <PUBCHEM_OPENEYE_ISO_SMILES>
CC1(C(=O)N(C(=O)N1)CC(CN2CCN(CC2)C(C3=CC=CC=C3)C4=CC=CC=C4)O)C5=CC=C(C=C5)F

> <PUBCHEM_CACTVS_TPSA>
76.1

> <PUBCHEM_MONOISOTOPIC_WEIGHT>
516.25366909

> <PUBCHEM_TOTAL_CHARGE>
0

> <PUBCHEM_HEAVY_ATOM_COUNT>
38

> <PUBCHEM_ATOM_DEF_STEREO_COUNT>
0

> <PUBCHEM_ATOM_UDEF_STEREO_COUNT>
2

> <PUBCHEM_BOND_DEF_STEREO_COUNT>
0

> <PUBCHEM_BOND_UDEF_STEREO_COUNT>
0

> <PUBCHEM_ISOTOPIC_ATOM_COUNT>
0

> <PUBCHEM_COMPONENT_COUNT>
1

> <PUBCHEM_CACTVS_TAUTO_COUNT>
-1

> <PUBCHEM_COORDINATE_TYPE>
1
5
255

> <PUBCHEM_BONDANNOTATIONS>
17  23  3
18  24  8
18  26  8
19  25  8
19  27  8
15  2  3
22  28  8
22  29  8
24  30  8
25  31  8
26  32  8
27  33  8
28  36  8
29  37  8
30  34  8
31  35  8
32  34  8
33  35  8
36  38  8
37  38  8

$$$$
