15651971
  -OEChem-09292322132D

 37 38  0     1  0  0  0  0  0999 V2000
    9.8602   -0.7315    0.0000 O   0  0  0  0  0  0  0  0  0  0  0  0
    4.5981   -0.7073    0.0000 N   0  0  0  0  0  0  0  0  0  0  0  0
    5.4641   -0.2073    0.0000 C   0  0  1  0  0  0  0  0  0  0  0  0
    5.4641    0.7927    0.0000 C   0  0  0  0  0  0  0  0  0  0  0  0
    6.3301   -0.7073    0.0000 C   0  0  0  0  0  0  0  0  0  0  0  0
    6.3301    1.2927    0.0000 C   0  0  0  0  0  0  0  0  0  0  0  0
    7.1962   -0.2073    0.0000 C   0  0  0  0  0  0  0  0  0  0  0  0
    7.1962    0.7927    0.0000 C   0  0  0  0  0  0  0  0  0  0  0  0
    3.7320   -0.2073    0.0000 C   0  0  0  0  0  0  0  0  0  0  0  0
    8.0901   -0.7420    0.0000 C   0  0  0  0  0  0  0  0  0  0  0  0
    8.0901    1.3273    0.0000 C   0  0  0  0  0  0  0  0  0  0  0  0
    2.8660   -0.7073    0.0000 C   0  0  0  0  0  0  0  0  0  0  0  0
    8.9962   -0.2281    0.0000 C   0  0  0  0  0  0  0  0  0  0  0  0
    8.9962    0.8135    0.0000 C   0  0  0  0  0  0  0  0  0  0  0  0
    2.0000   -0.2073    0.0000 C   0  0  0  0  0  0  0  0  0  0  0  0
   10.7282   -0.2348    0.0000 C   0  0  0  0  0  0  0  0  0  0  0  0
    5.4641   -0.8273    0.0000 H   0  0  0  0  0  0  0  0  0  0  0  0
    5.2520    1.3753    0.0000 H   0  0  0  0  0  0  0  0  0  0  0  0
    4.8535    0.6850    0.0000 H   0  0  0  0  0  0  0  0  0  0  0  0
    5.9316   -1.1823    0.0000 H   0  0  0  0  0  0  0  0  0  0  0  0
    6.7287   -1.1823    0.0000 H   0  0  0  0  0  0  0  0  0  0  0  0
    6.7287    1.7676    0.0000 H   0  0  0  0  0  0  0  0  0  0  0  0
    5.9316    1.7676    0.0000 H   0  0  0  0  0  0  0  0  0  0  0  0
    4.5981   -1.3273    0.0000 H   0  0  0  0  0  0  0  0  0  0  0  0
    4.1306    0.2676    0.0000 H   0  0  0  0  0  0  0  0  0  0  0  0
    3.3335    0.2676    0.0000 H   0  0  0  0  0  0  0  0  0  0  0  0
    8.0829   -1.3620    0.0000 H   0  0  0  0  0  0  0  0  0  0  0  0
    8.0829    1.9473    0.0000 H   0  0  0  0  0  0  0  0  0  0  0  0
    2.4675   -1.1823    0.0000 H   0  0  0  0  0  0  0  0  0  0  0  0
    3.2646   -1.1823    0.0000 H   0  0  0  0  0  0  0  0  0  0  0  0
    9.5319    1.1256    0.0000 H   0  0  0  0  0  0  0  0  0  0  0  0
    2.3100    0.3296    0.0000 H   0  0  0  0  0  0  0  0  0  0  0  0
    1.4631    0.1027    0.0000 H   0  0  0  0  0  0  0  0  0  0  0  0
    1.6900   -0.7443    0.0000 H   0  0  0  0  0  0  0  0  0  0  0  0
   11.0361   -0.7729    0.0000 H   0  0  0  0  0  0  0  0  0  0  0  0
   11.2663    0.0731    0.0000 H   0  0  0  0  0  0  0  0  0  0  0  0
   10.4203    0.3033    0.0000 H   0  0  0  0  0  0  0  0  0  0  0  0
  1 13  1  0  0  0  0
  1 16  1  0  0  0  0
  3  2  1  1  0  0  0
  2  9  1  0  0  0  0
  2 24  1  0  0  0  0
  3  4  1  0  0  0  0
  3  5  1  0  0  0  0
  3 17  1  0  0  0  0
  4  6  1  0  0  0  0
  4 18  1  0  0  0  0
  4 19  1  0  0  0  0
  5  7  1  0  0  0  0
  5 20  1  0  0  0  0
  5 21  1  0  0  0  0
  6  8  1  0  0  0  0
  6 22  1  0  0  0  0
  6 23  1  0  0  0  0
  7  8  2  0  0  0  0
  7 10  1  0  0  0  0
  8 11  1  0  0  0  0
  9 12  1  0  0  0  0
  9 25  1  0  0  0  0
  9 26  1  0  0  0  0
 10 13  2  0  0  0  0
 10 27  1  0  0  0  0
 11 14  2  0  0  0  0
 11 28  1  0  0  0  0
 12 15  1  0  0  0  0
 12 29  1  0  0  0  0
 12 30  1  0  0  0  0
 13 14  1  0  0  0  0
 14 31  1  0  0  0  0
 15 32  1  0  0  0  0
 15 33  1  0  0  0  0
 15 34  1  0  0  0  0
 16 35  1  0  0  0  0
 16 36  1  0  0  0  0
 16 37  1  0  0  0  0
M  END
> <PUBCHEM_COMPOUND_CID>
15651971

> <PUBCHEM_COMPOUND_CANONICALIZED>
1

> <PUBCHEM_CACTVS_COMPLEXITY>
207

> <PUBCHEM_CACTVS_HBOND_ACCEPTOR>
2

> <PUBCHEM_CACTVS_HBOND_DONOR>
1

> <PUBCHEM_CACTVS_ROTATABLE_BOND>
4

> <PUBCHEM_CACTVS_SUBSKEYS>
AAADceByIAAAAAAAAAAAAAAAAAAAAAAAAAAwYAAAAAAAAADBAAAAHgAQAAAADCzBmAYyBoLABACAAiBCAAACCAAgIAAIiIAOCIgMJiKEsRuEMCAk0BGIqAeQ0LMOoAABAAAQAABQAAKAACAAAAAAAAAAAA==

> <PUBCHEM_IUPAC_OPENEYE_NAME>
(2S)-7-methoxy-N-propyl-tetralin-2-amine

> <PUBCHEM_IUPAC_CAS_NAME>
(2S)-7-methoxy-N-propyl-1,2,3,4-tetrahydronaphthalen-2-amine

> <PUBCHEM_IUPAC_NAME_MARKUP>
(2<I>S</I>)-7-methoxy-<I>N</I>-propyl-1,2,3,4-tetrahydronaphthalen-2-amine

> <PUBCHEM_IUPAC_NAME>
(2S)-7-methoxy-N-propyl-1,2,3,4-tetrahydronaphthalen-2-amine

> <PUBCHEM_IUPAC_SYSTEMATIC_NAME>
(2S)-7-methoxy-N-propyl-1,2,3,4-tetrahydronaphthalen-2-amine

> <PUBCHEM_IUPAC_TRADITIONAL_NAME>
[(2S)-7-methoxytetralin-2-yl]-propyl-amine

> <PUBCHEM_IUPAC_INCHI>
InChI=1S/C14H21NO/c1-3-8-15-13-6-4-11-5-7-14(16-2)10-12(11)9-13/h5,7,10,13,15H,3-4,6,8-9H2,1-2H3/t13-/m0/s1

> <PUBCHEM_IUPAC_INCHIKEY>
RMRODALMKPMZFW-ZDUSSCGKSA-N

> <PUBCHEM_XLOGP3_AA>
3.1

> <PUBCHEM_EXACT_MASS>
219.162314293

> <PUBCHEM_MOLECULAR_FORMULA>
C14H21NO

> <PUBCHEM_MOLECULAR_WEIGHT>
219.32

> <PUBCHEM_OPENEYE_CAN_SMILES>
CCCNC1CCC2=C(C1)C=C(C=C2)OC

> <PUBCHEM_OPENEYE_ISO_SMILES>
CCCN[C@H]1CCC2=C(C1)C=C(C=C2)OC

> <PUBCHEM_CACTVS_TPSA>
21.3

> <PUBCHEM_MONOISOTOPIC_WEIGHT>
219.162314293

> <PUBCHEM_TOTAL_CHARGE>
0

> <PUBCHEM_HEAVY_ATOM_COUNT>
16

> <PUBCHEM_ATOM_DEF_STEREO_COUNT>
1

> <PUBCHEM_ATOM_UDEF_STEREO_COUNT>
0

> <PUBCHEM_BOND_DEF_STEREO_COUNT>
0

> <PUBCHEM_BOND_UDEF_STEREO_COUNT>
0

> <PUBCHEM_ISOTOPIC_ATOM_COUNT>
0

> <PUBCHEM_COMPONENT_COUNT>
1

> <PUBCHEM_CACTVS_TAUTO_COUNT>
-1

> <PUBCHEM_COORDINATE_TYPE>
1
5
255

> <PUBCHEM_BONDANNOTATIONS>
10  13  8
11  14  8
13  14  8
3  2  5
7  10  8
7  8  8
8  11  8

$$$$
