76318472
  -OEChem-09292322342D

 80 82  0     0  0  0  0  0  0999 V2000
    0.0000    2.6200    0.0000 F   0  0  0  0  0  0  0  0  0  0  0  0
   17.8241    2.4860    0.0000 O   0  0  0  0  0  0  0  0  0  0  0  0
    5.1962    2.6200    0.0000 O   0  0  0  0  0  0  0  0  0  0  0  0
   10.8241    0.7540    0.0000 O   0  0  0  0  0  0  0  0  0  0  0  0
    2.5981    2.1200    0.0000 O   0  0  0  0  0  0  0  0  0  0  0  0
   11.5211    8.6936    0.0000 O   0  0  0  0  0  0  0  0  0  0  0  0
    8.9230    9.1936    0.0000 O   0  0  0  0  0  0  0  0  0  0  0  0
   10.6550   10.1936    0.0000 O   0  0  0  0  0  0  0  0  0  0  0  0
    9.7890    7.6936    0.0000 O   0  0  0  0  0  0  0  0  0  0  0  0
   14.8241    4.2181    0.0000 N   0  0  0  0  0  0  0  0  0  0  0  0
   16.8241    4.2181    0.0000 N   0  0  0  0  0  0  0  0  0  0  0  0
   10.8241    2.4860    0.0000 N   0  0  0  0  0  0  0  0  0  0  0  0
    8.7404    0.8153    0.0000 N   0  0  0  0  0  0  0  0  0  0  0  0
   15.3241    3.3520    0.0000 C   0  0  0  0  0  0  0  0  0  0  0  0
   15.3241    5.0841    0.0000 C   0  0  0  0  0  0  0  0  0  0  0  0
   16.3241    3.3520    0.0000 C   0  0  0  0  0  0  0  0  0  0  0  0
   16.3241    5.0841    0.0000 C   0  0  0  0  0  0  0  0  0  0  0  0
   13.8241    4.2181    0.0000 C   0  0  0  0  0  0  0  0  0  0  0  0
   17.8241    4.2181    0.0000 C   0  0  0  0  0  0  0  0  0  0  0  0
   13.3241    3.3520    0.0000 C   0  0  0  0  0  0  0  0  0  0  0  0
   18.3241    3.3520    0.0000 C   0  0  0  0  0  0  0  0  0  0  0  0
   18.3241    5.0841    0.0000 C   0  0  0  0  0  0  0  0  0  0  0  0
   19.3241    3.3520    0.0000 C   0  0  0  0  0  0  0  0  0  0  0  0
   12.3241    3.3520    0.0000 C   0  0  0  0  0  0  0  0  0  0  0  0
   19.3241    5.0841    0.0000 C   0  0  0  0  0  0  0  0  0  0  0  0
   19.8241    4.2181    0.0000 C   0  0  0  0  0  0  0  0  0  0  0  0
   11.8241    2.4860    0.0000 C   0  0  0  0  0  0  0  0  0  0  0  0
   18.3241    1.6200    0.0000 C   0  0  0  0  0  0  0  0  0  0  0  0
    9.3241    1.6200    0.0000 C   0  0  0  0  0  0  0  0  0  0  0  0
   10.3241    1.6200    0.0000 C   0  0  0  0  0  0  0  0  0  0  0  0
    7.7942    2.1200    0.0000 C   0  0  0  0  0  0  0  0  0  0  0  0
    7.7942    1.1200    0.0000 C   0  0  0  0  0  0  0  0  0  0  0  0
    8.7404    2.4247    0.0000 C   0  0  0  0  0  0  0  0  0  0  0  0
    6.9282    2.6200    0.0000 C   0  0  0  0  0  0  0  0  0  0  0  0
    6.9282    0.6200    0.0000 C   0  0  0  0  0  0  0  0  0  0  0  0
    6.0622    2.1200    0.0000 C   0  0  0  0  0  0  0  0  0  0  0  0
    6.0622    1.1200    0.0000 C   0  0  0  0  0  0  0  0  0  0  0  0
    4.3301    2.1200    0.0000 C   0  0  0  0  0  0  0  0  0  0  0  0
    3.4641    2.6200    0.0000 C   0  0  0  0  0  0  0  0  0  0  0  0
    1.7320    2.6200    0.0000 C   0  0  0  0  0  0  0  0  0  0  0  0
    0.8660    2.1200    0.0000 C   0  0  0  0  0  0  0  0  0  0  0  0
   10.6550    9.1936    0.0000 C   0  0  0  0  0  0  0  0  0  0  0  0
    9.7890    8.6936    0.0000 C   0  0  0  0  0  0  0  0  0  0  0  0
   14.7414    3.1400    0.0000 H   0  0  0  0  0  0  0  0  0  0  0  0
   15.4317    2.7415    0.0000 H   0  0  0  0  0  0  0  0  0  0  0  0
   15.4317    5.6947    0.0000 H   0  0  0  0  0  0  0  0  0  0  0  0
   14.7414    5.2962    0.0000 H   0  0  0  0  0  0  0  0  0  0  0  0
   16.2164    2.7415    0.0000 H   0  0  0  0  0  0  0  0  0  0  0  0
   16.9067    3.1400    0.0000 H   0  0  0  0  0  0  0  0  0  0  0  0
   16.9067    5.2962    0.0000 H   0  0  0  0  0  0  0  0  0  0  0  0
   16.2164    5.6947    0.0000 H   0  0  0  0  0  0  0  0  0  0  0  0
   13.9317    4.8287    0.0000 H   0  0  0  0  0  0  0  0  0  0  0  0
   13.2414    4.4301    0.0000 H   0  0  0  0  0  0  0  0  0  0  0  0
   13.6341    2.8151    0.0000 H   0  0  0  0  0  0  0  0  0  0  0  0
   18.0141    5.6210    0.0000 H   0  0  0  0  0  0  0  0  0  0  0  0
   19.6341    2.8151    0.0000 H   0  0  0  0  0  0  0  0  0  0  0  0
   12.0141    3.8890    0.0000 H   0  0  0  0  0  0  0  0  0  0  0  0
   19.6341    5.6210    0.0000 H   0  0  0  0  0  0  0  0  0  0  0  0
   20.4441    4.2181    0.0000 H   0  0  0  0  0  0  0  0  0  0  0  0
   11.7164    1.8754    0.0000 H   0  0  0  0  0  0  0  0  0  0  0  0
   12.4067    2.2740    0.0000 H   0  0  0  0  0  0  0  0  0  0  0  0
   10.5141    3.0230    0.0000 H   0  0  0  0  0  0  0  0  0  0  0  0
   17.7871    1.3100    0.0000 H   0  0  0  0  0  0  0  0  0  0  0  0
   18.6341    1.0831    0.0000 H   0  0  0  0  0  0  0  0  0  0  0  0
   18.8610    1.9300    0.0000 H   0  0  0  0  0  0  0  0  0  0  0  0
    8.9331    3.0141    0.0000 H   0  0  0  0  0  0  0  0  0  0  0  0
    8.9331    0.2259    0.0000 H   0  0  0  0  0  0  0  0  0  0  0  0
    6.9282    3.2400    0.0000 H   0  0  0  0  0  0  0  0  0  0  0  0
    6.9282    0.0000    0.0000 H   0  0  0  0  0  0  0  0  0  0  0  0
    5.5252    0.8100    0.0000 H   0  0  0  0  0  0  0  0  0  0  0  0
    3.9316    1.6450    0.0000 H   0  0  0  0  0  0  0  0  0  0  0  0
    4.7287    1.6450    0.0000 H   0  0  0  0  0  0  0  0  0  0  0  0
    3.8626    3.0950    0.0000 H   0  0  0  0  0  0  0  0  0  0  0  0
    3.0656    3.0950    0.0000 H   0  0  0  0  0  0  0  0  0  0  0  0
    2.1306    3.0950    0.0000 H   0  0  0  0  0  0  0  0  0  0  0  0
    1.3335    3.0950    0.0000 H   0  0  0  0  0  0  0  0  0  0  0  0
    0.4675    1.6450    0.0000 H   0  0  0  0  0  0  0  0  0  0  0  0
    1.2646    1.6450    0.0000 H   0  0  0  0  0  0  0  0  0  0  0  0
   12.0580    9.0036    0.0000 H   0  0  0  0  0  0  0  0  0  0  0  0
    8.3860    8.8836    0.0000 H   0  0  0  0  0  0  0  0  0  0  0  0
  1 41  1  0  0  0  0
  2 21  1  0  0  0  0
  2 28  1  0  0  0  0
  3 36  1  0  0  0  0
  3 38  1  0  0  0  0
  4 30  2  0  0  0  0
  5 39  1  0  0  0  0
  5 40  1  0  0  0  0
  6 42  1  0  0  0  0
  6 79  1  0  0  0  0
  7 43  1  0  0  0  0
  7 80  1  0  0  0  0
  8 42  2  0  0  0  0
  9 43  2  0  0  0  0
 10 14  1  0  0  0  0
 10 15  1  0  0  0  0
 10 18  1  0  0  0  0
 11 16  1  0  0  0  0
 11 17  1  0  0  0  0
 11 19  1  0  0  0  0
 12 27  1  0  0  0  0
 12 30  1  0  0  0  0
 12 62  1  0  0  0  0
 13 29  1  0  0  0  0
 13 32  1  0  0  0  0
 13 67  1  0  0  0  0
 14 16  1  0  0  0  0
 14 44  1  0  0  0  0
 14 45  1  0  0  0  0
 15 17  1  0  0  0  0
 15 46  1  0  0  0  0
 15 47  1  0  0  0  0
 16 48  1  0  0  0  0
 16 49  1  0  0  0  0
 17 50  1  0  0  0  0
 17 51  1  0  0  0  0
 18 20  1  0  0  0  0
 18 52  1  0  0  0  0
 18 53  1  0  0  0  0
 19 21  1  0  0  0  0
 19 22  2  0  0  0  0
 20 24  2  0  0  0  0
 20 54  1  0  0  0  0
 21 23  2  0  0  0  0
 22 25  1  0  0  0  0
 22 55  1  0  0  0  0
 23 26  1  0  0  0  0
 23 56  1  0  0  0  0
 24 27  1  0  0  0  0
 24 57  1  0  0  0  0
 25 26  2  0  0  0  0
 25 58  1  0  0  0  0
 26 59  1  0  0  0  0
 27 60  1  0  0  0  0
 27 61  1  0  0  0  0
 28 63  1  0  0  0  0
 28 64  1  0  0  0  0
 28 65  1  0  0  0  0
 29 30  1  0  0  0  0
 29 33  2  0  0  0  0
 31 32  2  0  0  0  0
 31 33  1  0  0  0  0
 31 34  1  0  0  0  0
 32 35  1  0  0  0  0
 33 66  1  0  0  0  0
 34 36  2  0  0  0  0
 34 68  1  0  0  0  0
 35 37  2  0  0  0  0
 35 69  1  0  0  0  0
 36 37  1  0  0  0  0
 37 70  1  0  0  0  0
 38 39  1  0  0  0  0
 38 71  1  0  0  0  0
 38 72  1  0  0  0  0
 39 73  1  0  0  0  0
 39 74  1  0  0  0  0
 40 41  1  0  0  0  0
 40 75  1  0  0  0  0
 40 76  1  0  0  0  0
 41 77  1  0  0  0  0
 41 78  1  0  0  0  0
 42 43  1  0  0  0  0
M  END
> <PUBCHEM_COMPOUND_CID>
76318472

> <PUBCHEM_COMPOUND_CANONICALIZED>
1

> <PUBCHEM_CACTVS_COMPLEXITY>
777

> <PUBCHEM_CACTVS_HBOND_ACCEPTOR>
11

> <PUBCHEM_CACTVS_HBOND_DONOR>
4

> <PUBCHEM_CACTVS_ROTATABLE_BOND>
14

> <PUBCHEM_CACTVS_SUBSKEYS>
AAADcfB7vQAAAAAAAAAAAAAAAAAAAWAAAAA8YIAAAAAAAFgB9AAAHwAQCAAADAzhngYyzvPJlgCoAyXyXAKCiCAnIiAImaH/bNgPZvLEtbuXOSjk1hHb6Ye42bOeAEABAAACEAAAgAIAAAQgAAAAAAAAAA==

> <PUBCHEM_IUPAC_OPENEYE_NAME>
5-[2-(2-fluoroethoxy)ethoxy]-N-[(E)-4-[4-(2-methoxyphenyl)piperazin-1-yl]but-2-enyl]-1H-indole-2-carboxamide;oxalic acid

> <PUBCHEM_IUPAC_CAS_NAME>
5-[2-(2-fluoroethoxy)ethoxy]-N-[(E)-4-[4-(2-methoxyphenyl)-1-piperazinyl]but-2-enyl]-1H-indole-2-carboxamide;oxalic acid

> <PUBCHEM_IUPAC_NAME_MARKUP>
5-[2-(2-fluoroethoxy)ethoxy]-<I>N</I>-[(<I>E</I>)-4-[4-(2-methoxyphenyl)piperazin-1-yl]but-2-enyl]-1<I>H</I>-indole-2-carboxamide;oxalic acid

> <PUBCHEM_IUPAC_NAME>
5-[2-(2-fluoroethoxy)ethoxy]-N-[(E)-4-[4-(2-methoxyphenyl)piperazin-1-yl]but-2-enyl]-1H-indole-2-carboxamide;oxalic acid

> <PUBCHEM_IUPAC_SYSTEMATIC_NAME>
ethanedioic acid;5-[2-(2-fluoranylethoxy)ethoxy]-N-[(E)-4-[4-(2-methoxyphenyl)piperazin-1-yl]but-2-enyl]-1H-indole-2-carboxamide

> <PUBCHEM_IUPAC_TRADITIONAL_NAME>
5-[2-(2-fluoroethoxy)ethoxy]-N-[(E)-4-[4-(2-methoxyphenyl)piperazino]but-2-enyl]-1H-indole-2-carboxamide;oxalic acid

> <PUBCHEM_IUPAC_INCHI>
InChI=1S/C28H35FN4O4.C2H2O4/c1-35-27-7-3-2-6-26(27)33-15-13-32(14-16-33)12-5-4-11-30-28(34)25-21-22-20-23(8-9-24(22)31-25)37-19-18-36-17-10-29;3-1(4)2(5)6/h2-9,20-21,31H,10-19H2,1H3,(H,30,34);(H,3,4)(H,5,6)/b5-4+;

> <PUBCHEM_IUPAC_INCHIKEY>
GCQAMKSJZMJKLE-FXRZFVDSSA-N

> <PUBCHEM_EXACT_MASS>
600.25954231

> <PUBCHEM_MOLECULAR_FORMULA>
C30H37FN4O8

> <PUBCHEM_MOLECULAR_WEIGHT>
600.6

> <PUBCHEM_OPENEYE_CAN_SMILES>
COC1=CC=CC=C1N2CCN(CC2)CC=CCNC(=O)C3=CC4=C(N3)C=CC(=C4)OCCOCCF.C(=O)(C(=O)O)O

> <PUBCHEM_OPENEYE_ISO_SMILES>
COC1=CC=CC=C1N2CCN(CC2)C/C=C/CNC(=O)C3=CC4=C(N3)C=CC(=C4)OCCOCCF.C(=O)(C(=O)O)O

> <PUBCHEM_CACTVS_TPSA>
154

> <PUBCHEM_MONOISOTOPIC_WEIGHT>
600.25954231

> <PUBCHEM_TOTAL_CHARGE>
0

> <PUBCHEM_HEAVY_ATOM_COUNT>
43

> <PUBCHEM_ATOM_DEF_STEREO_COUNT>
0

> <PUBCHEM_ATOM_UDEF_STEREO_COUNT>
0

> <PUBCHEM_BOND_DEF_STEREO_COUNT>
1

> <PUBCHEM_BOND_UDEF_STEREO_COUNT>
0

> <PUBCHEM_ISOTOPIC_ATOM_COUNT>
0

> <PUBCHEM_COMPONENT_COUNT>
2

> <PUBCHEM_CACTVS_TAUTO_COUNT>
-1

> <PUBCHEM_COORDINATE_TYPE>
1
5
255

> <PUBCHEM_BONDANNOTATIONS>
13  29  8
13  32  8
19  21  8
19  22  8
21  23  8
22  25  8
23  26  8
25  26  8
29  33  8
31  32  8
31  33  8
31  34  8
32  35  8
34  36  8
35  37  8
36  37  8

$$$$
