45266055
  -OEChem-09292322152D

 59 61  0     0  0  0  0  0  0999 V2000
    9.2877    6.8784    0.0000 Cl  0  0  0  0  0  0  0  0  0  0  0  0
    3.1920   10.2078    0.0000 O   0  0  0  0  0  0  0  0  0  0  0  0
    2.2690    5.6200    0.0000 N   0  0  0  0  0  0  0  0  0  0  0  0
    2.2690    3.6200    0.0000 N   0  0  0  0  0  0  0  0  0  0  0  0
    3.5010   11.1588    0.0000 N   0  0  0  0  0  0  0  0  0  0  0  0
    3.1350    5.1200    0.0000 C   0  0  0  0  0  0  0  0  0  0  0  0
    1.4030    5.1200    0.0000 C   0  0  0  0  0  0  0  0  0  0  0  0
    3.1350    4.1200    0.0000 C   0  0  0  0  0  0  0  0  0  0  0  0
    1.4030    4.1200    0.0000 C   0  0  0  0  0  0  0  0  0  0  0  0
    2.2690    6.6200    0.0000 C   0  0  0  0  0  0  0  0  0  0  0  0
    3.1350    7.1200    0.0000 C   0  0  0  0  0  0  0  0  0  0  0  0
    2.2690    2.6200    0.0000 C   0  0  0  0  0  0  0  0  0  0  0  0
    3.1350    8.1200    0.0000 C   0  0  0  0  0  0  0  0  0  0  0  0
    4.0010    8.6200    0.0000 C   0  0  0  0  0  0  0  0  0  0  0  0
    1.4030    2.1200    0.0000 C   0  0  0  0  0  0  0  0  0  0  0  0
    3.1350    2.1200    0.0000 C   0  0  0  0  0  0  0  0  0  0  0  0
    4.0010    9.6200    0.0000 C   0  0  0  0  0  0  0  0  0  0  0  0
    1.4030    1.1200    0.0000 C   0  0  0  0  0  0  0  0  0  0  0  0
    0.5369    2.6200    0.0000 C   0  0  0  0  0  0  0  0  0  0  0  0
    3.1350    1.1200    0.0000 C   0  0  0  0  0  0  0  0  0  0  0  0
    2.2690    0.6200    0.0000 C   0  0  0  0  0  0  0  0  0  0  0  0
    4.8101   10.2078    0.0000 C   0  0  0  0  0  0  0  0  0  0  0  0
    4.5010   11.1588    0.0000 C   0  0  0  0  0  0  0  0  0  0  0  0
    5.0888   11.9679    0.0000 C   0  0  0  0  0  0  0  0  0  0  0  0
    6.0833   11.8633    0.0000 C   0  0  0  0  0  0  0  0  0  0  0  0
    4.6821   12.8814    0.0000 C   0  0  0  0  0  0  0  0  0  0  0  0
    6.6711   12.6723    0.0000 C   0  0  0  0  0  0  0  0  0  0  0  0
    5.2699   13.6904    0.0000 C   0  0  0  0  0  0  0  0  0  0  0  0
    6.2644   13.5859    0.0000 C   0  0  0  0  0  0  0  0  0  0  0  0
    3.7456    5.0123    0.0000 H   0  0  0  0  0  0  0  0  0  0  0  0
    3.3471    5.7026    0.0000 H   0  0  0  0  0  0  0  0  0  0  0  0
    1.1909    5.7026    0.0000 H   0  0  0  0  0  0  0  0  0  0  0  0
    0.7924    5.0123    0.0000 H   0  0  0  0  0  0  0  0  0  0  0  0
    3.3471    3.5374    0.0000 H   0  0  0  0  0  0  0  0  0  0  0  0
    3.7456    4.2277    0.0000 H   0  0  0  0  0  0  0  0  0  0  0  0
    0.7924    4.2277    0.0000 H   0  0  0  0  0  0  0  0  0  0  0  0
    1.1909    3.5374    0.0000 H   0  0  0  0  0  0  0  0  0  0  0  0
    2.0569    7.2026    0.0000 H   0  0  0  0  0  0  0  0  0  0  0  0
    1.6584    6.5123    0.0000 H   0  0  0  0  0  0  0  0  0  0  0  0
    3.3471    6.5374    0.0000 H   0  0  0  0  0  0  0  0  0  0  0  0
    3.7456    7.2277    0.0000 H   0  0  0  0  0  0  0  0  0  0  0  0
    2.9230    8.7026    0.0000 H   0  0  0  0  0  0  0  0  0  0  0  0
    2.5244    8.0123    0.0000 H   0  0  0  0  0  0  0  0  0  0  0  0
    4.2131    8.0374    0.0000 H   0  0  0  0  0  0  0  0  0  0  0  0
    4.6116    8.7277    0.0000 H   0  0  0  0  0  0  0  0  0  0  0  0
    3.6720    2.4300    0.0000 H   0  0  0  0  0  0  0  0  0  0  0  0
    0.8660    0.8100    0.0000 H   0  0  0  0  0  0  0  0  0  0  0  0
    0.8469    3.1569    0.0000 H   0  0  0  0  0  0  0  0  0  0  0  0
    0.0000    2.9300    0.0000 H   0  0  0  0  0  0  0  0  0  0  0  0
    0.2269    2.0831    0.0000 H   0  0  0  0  0  0  0  0  0  0  0  0
    3.6720    0.8100    0.0000 H   0  0  0  0  0  0  0  0  0  0  0  0
    2.2690    0.0000    0.0000 H   0  0  0  0  0  0  0  0  0  0  0  0
    5.3997   10.0162    0.0000 H   0  0  0  0  0  0  0  0  0  0  0  0
    6.3355   11.2969    0.0000 H   0  0  0  0  0  0  0  0  0  0  0  0
    4.0655   12.9462    0.0000 H   0  0  0  0  0  0  0  0  0  0  0  0
    7.2877   12.6075    0.0000 H   0  0  0  0  0  0  0  0  0  0  0  0
    5.0177   14.2568    0.0000 H   0  0  0  0  0  0  0  0  0  0  0  0
    6.6288   14.0875    0.0000 H   0  0  0  0  0  0  0  0  0  0  0  0
   10.2877    6.8784    0.0000 H   0  0  0  0  0  0  0  0  0  0  0  0
  1 59  1  0  0  0  0
  2  5  1  0  0  0  0
  2 17  1  0  0  0  0
  3  6  1  0  0  0  0
  3  7  1  0  0  0  0
  3 10  1  0  0  0  0
  4  8  1  0  0  0  0
  4  9  1  0  0  0  0
  4 12  1  0  0  0  0
  5 23  2  0  0  0  0
  6  8  1  0  0  0  0
  6 30  1  0  0  0  0
  6 31  1  0  0  0  0
  7  9  1  0  0  0  0
  7 32  1  0  0  0  0
  7 33  1  0  0  0  0
  8 34  1  0  0  0  0
  8 35  1  0  0  0  0
  9 36  1  0  0  0  0
  9 37  1  0  0  0  0
 10 11  1  0  0  0  0
 10 38  1  0  0  0  0
 10 39  1  0  0  0  0
 11 13  1  0  0  0  0
 11 40  1  0  0  0  0
 11 41  1  0  0  0  0
 12 15  1  0  0  0  0
 12 16  2  0  0  0  0
 13 14  1  0  0  0  0
 13 42  1  0  0  0  0
 13 43  1  0  0  0  0
 14 17  1  0  0  0  0
 14 44  1  0  0  0  0
 14 45  1  0  0  0  0
 15 18  2  0  0  0  0
 15 19  1  0  0  0  0
 16 20  1  0  0  0  0
 16 46  1  0  0  0  0
 17 22  2  0  0  0  0
 18 21  1  0  0  0  0
 18 47  1  0  0  0  0
 19 48  1  0  0  0  0
 19 49  1  0  0  0  0
 19 50  1  0  0  0  0
 20 21  2  0  0  0  0
 20 51  1  0  0  0  0
 21 52  1  0  0  0  0
 22 23  1  0  0  0  0
 22 53  1  0  0  0  0
 23 24  1  0  0  0  0
 24 25  2  0  0  0  0
 24 26  1  0  0  0  0
 25 27  1  0  0  0  0
 25 54  1  0  0  0  0
 26 28  2  0  0  0  0
 26 55  1  0  0  0  0
 27 29  2  0  0  0  0
 27 56  1  0  0  0  0
 28 29  1  0  0  0  0
 28 57  1  0  0  0  0
 29 58  1  0  0  0  0
M  END
> <PUBCHEM_COMPOUND_CID>
45266055

> <PUBCHEM_COMPOUND_CANONICALIZED>
1

> <PUBCHEM_CACTVS_COMPLEXITY>
445

> <PUBCHEM_CACTVS_HBOND_ACCEPTOR>
4

> <PUBCHEM_CACTVS_HBOND_DONOR>
1

> <PUBCHEM_CACTVS_ROTATABLE_BOND>
7

> <PUBCHEM_CACTVS_SUBSKEYS>
AAADceB7IAAEAAAAAAAAAAAAAAAAAWAAAAA8YIAAAAAAAAAB0AAAHgAEAAAADAzBngQyxJMQAACpA6RyQgCCAAAlIgAomCE+bNoIZrrAkZOUMYhmgBjIyUeY2eKOAAAAAAACAAAAAAAAAAQAAAAAAAAAAA==

> <PUBCHEM_IUPAC_OPENEYE_NAME>
5-[4-[4-(o-tolyl)piperazin-1-yl]butyl]-3-phenyl-isoxazole;hydrochloride

> <PUBCHEM_IUPAC_CAS_NAME>
5-[4-[4-(2-methylphenyl)-1-piperazinyl]butyl]-3-phenylisoxazole;hydrochloride

> <PUBCHEM_IUPAC_NAME_MARKUP>
5-[4-[4-(2-methylphenyl)piperazin-1-yl]butyl]-3-phenyl-1,2-oxazole;hydrochloride

> <PUBCHEM_IUPAC_NAME>
5-[4-[4-(2-methylphenyl)piperazin-1-yl]butyl]-3-phenyl-1,2-oxazole;hydrochloride

> <PUBCHEM_IUPAC_SYSTEMATIC_NAME>
5-[4-[4-(2-methylphenyl)piperazin-1-yl]butyl]-3-phenyl-1,2-oxazole;hydrochloride

> <PUBCHEM_IUPAC_TRADITIONAL_NAME>
5-[4-[4-(o-tolyl)piperazino]butyl]-3-phenyl-isoxazole;hydrochloride

> <PUBCHEM_IUPAC_INCHI>
InChI=1S/C24H29N3O.ClH/c1-20-9-5-6-13-24(20)27-17-15-26(16-18-27)14-8-7-12-22-19-23(25-28-22)21-10-3-2-4-11-21;/h2-6,9-11,13,19H,7-8,12,14-18H2,1H3;1H

> <PUBCHEM_IUPAC_INCHIKEY>
UGDAYFSLNWLBJJ-UHFFFAOYSA-N

> <PUBCHEM_EXACT_MASS>
411.2077403

> <PUBCHEM_MOLECULAR_FORMULA>
C24H30ClN3O

> <PUBCHEM_MOLECULAR_WEIGHT>
412.0

> <PUBCHEM_OPENEYE_CAN_SMILES>
CC1=CC=CC=C1N2CCN(CC2)CCCCC3=CC(=NO3)C4=CC=CC=C4.Cl

> <PUBCHEM_OPENEYE_ISO_SMILES>
CC1=CC=CC=C1N2CCN(CC2)CCCCC3=CC(=NO3)C4=CC=CC=C4.Cl

> <PUBCHEM_CACTVS_TPSA>
32.5

> <PUBCHEM_MONOISOTOPIC_WEIGHT>
411.2077403

> <PUBCHEM_TOTAL_CHARGE>
0

> <PUBCHEM_HEAVY_ATOM_COUNT>
29

> <PUBCHEM_ATOM_DEF_STEREO_COUNT>
0

> <PUBCHEM_ATOM_UDEF_STEREO_COUNT>
0

> <PUBCHEM_BOND_DEF_STEREO_COUNT>
0

> <PUBCHEM_BOND_UDEF_STEREO_COUNT>
0

> <PUBCHEM_ISOTOPIC_ATOM_COUNT>
0

> <PUBCHEM_COMPONENT_COUNT>
2

> <PUBCHEM_CACTVS_TAUTO_COUNT>
-1

> <PUBCHEM_COORDINATE_TYPE>
1
5
255

> <PUBCHEM_BONDANNOTATIONS>
12  15  8
12  16  8
15  18  8
16  20  8
17  22  8
18  21  8
2  17  8
2  5  8
20  21  8
22  23  8
24  25  8
24  26  8
25  27  8
26  28  8
27  29  8
28  29  8
5  23  8

$$$$
