53361302
  -OEChem-09292322322D

 75 78  0     0  0  0  0  0  0999 V2000
    7.1962   -7.2420    0.0000 O   0  0  0  0  0  0  0  0  0  0  0  0
    4.5981    0.2580    0.0000 O   0  0  0  0  0  0  0  0  0  0  0  0
    2.8660   -0.7420    0.0000 O   0  0  0  0  0  0  0  0  0  0  0  0
    5.4641   -4.2420    0.0000 N   0  0  0  0  0  0  0  0  0  0  0  0
    7.1962   -5.2420    0.0000 N   0  0  0  0  0  0  0  0  0  0  0  0
    6.8301    4.7969    0.0000 N   0  0  0  0  0  0  0  0  0  0  0  0
    5.5211    3.8458    0.0000 N   0  0  0  0  0  0  0  0  0  0  0  0
    5.8301    4.7969    0.0000 N   0  0  0  0  0  0  0  0  0  0  0  0
    5.4641   -5.2420    0.0000 C   0  0  0  0  0  0  0  0  0  0  0  0
    6.3301   -3.7420    0.0000 C   0  0  0  0  0  0  0  0  0  0  0  0
    6.3301   -5.7420    0.0000 C   0  0  0  0  0  0  0  0  0  0  0  0
    7.1962   -4.2420    0.0000 C   0  0  0  0  0  0  0  0  0  0  0  0
    4.5981   -3.7420    0.0000 C   0  0  0  0  0  0  0  0  0  0  0  0
    8.0622   -5.7420    0.0000 C   0  0  0  0  0  0  0  0  0  0  0  0
    4.5981   -2.7420    0.0000 C   0  0  0  0  0  0  0  0  0  0  0  0
    8.0622   -6.7420    0.0000 C   0  0  0  0  0  0  0  0  0  0  0  0
    8.9282   -5.2420    0.0000 C   0  0  0  0  0  0  0  0  0  0  0  0
    3.7320   -2.2420    0.0000 C   0  0  0  0  0  0  0  0  0  0  0  0
    5.4641   -2.2420    0.0000 C   0  0  0  0  0  0  0  0  0  0  0  0
    8.9282   -7.2420    0.0000 C   0  0  0  0  0  0  0  0  0  0  0  0
    3.7320   -1.2420    0.0000 C   0  0  0  0  0  0  0  0  0  0  0  0
    9.7942   -5.7420    0.0000 C   0  0  0  0  0  0  0  0  0  0  0  0
    5.4641   -1.2420    0.0000 C   0  0  0  0  0  0  0  0  0  0  0  0
    4.5981   -0.7420    0.0000 C   0  0  0  0  0  0  0  0  0  0  0  0
    9.7942   -6.7420    0.0000 C   0  0  0  0  0  0  0  0  0  0  0  0
    5.4641    1.7580    0.0000 C   0  0  0  0  0  0  0  0  0  0  0  0
    5.4641    0.7580    0.0000 C   0  0  0  0  0  0  0  0  0  0  0  0
    6.3301    2.2580    0.0000 C   0  0  0  0  0  0  0  0  0  0  0  0
    7.4179    5.6059    0.0000 C   0  0  0  0  0  0  0  0  0  0  0  0
    6.3301    3.2580    0.0000 C   0  0  0  0  0  0  0  0  0  0  0  0
    7.0112    6.5194    0.0000 C   0  0  0  0  0  0  0  0  0  0  0  0
    7.1962   -8.2420    0.0000 C   0  0  0  0  0  0  0  0  0  0  0  0
    7.1391    3.8458    0.0000 C   0  0  0  0  0  0  0  0  0  0  0  0
    7.5990    7.3284    0.0000 C   0  0  0  0  0  0  0  0  0  0  0  0
    2.0000   -1.2420    0.0000 C   0  0  0  0  0  0  0  0  0  0  0  0
    7.1922    8.2420    0.0000 C   0  0  0  0  0  0  0  0  0  0  0  0
    4.8535   -5.1343    0.0000 H   0  0  0  0  0  0  0  0  0  0  0  0
    5.2520   -5.8246    0.0000 H   0  0  0  0  0  0  0  0  0  0  0  0
    6.7287   -3.2670    0.0000 H   0  0  0  0  0  0  0  0  0  0  0  0
    5.9316   -3.2670    0.0000 H   0  0  0  0  0  0  0  0  0  0  0  0
    5.9316   -6.2169    0.0000 H   0  0  0  0  0  0  0  0  0  0  0  0
    6.7287   -6.2169    0.0000 H   0  0  0  0  0  0  0  0  0  0  0  0
    7.8067   -4.3496    0.0000 H   0  0  0  0  0  0  0  0  0  0  0  0
    7.4082   -3.6594    0.0000 H   0  0  0  0  0  0  0  0  0  0  0  0
    3.9875   -3.6343    0.0000 H   0  0  0  0  0  0  0  0  0  0  0  0
    4.3860   -4.3246    0.0000 H   0  0  0  0  0  0  0  0  0  0  0  0
    8.9282   -4.6220    0.0000 H   0  0  0  0  0  0  0  0  0  0  0  0
    3.1951   -2.5520    0.0000 H   0  0  0  0  0  0  0  0  0  0  0  0
    6.0010   -2.5520    0.0000 H   0  0  0  0  0  0  0  0  0  0  0  0
    8.9282   -7.8620    0.0000 H   0  0  0  0  0  0  0  0  0  0  0  0
   10.3312   -5.4320    0.0000 H   0  0  0  0  0  0  0  0  0  0  0  0
    6.0010   -0.9320    0.0000 H   0  0  0  0  0  0  0  0  0  0  0  0
   10.3312   -7.0520    0.0000 H   0  0  0  0  0  0  0  0  0  0  0  0
    5.2520    2.3406    0.0000 H   0  0  0  0  0  0  0  0  0  0  0  0
    4.8535    1.6504    0.0000 H   0  0  0  0  0  0  0  0  0  0  0  0
    5.6762    0.1754    0.0000 H   0  0  0  0  0  0  0  0  0  0  0  0
    6.0747    0.8657    0.0000 H   0  0  0  0  0  0  0  0  0  0  0  0
    6.5422    1.6754    0.0000 H   0  0  0  0  0  0  0  0  0  0  0  0
    6.9407    2.3657    0.0000 H   0  0  0  0  0  0  0  0  0  0  0  0
    7.8486    5.1599    0.0000 H   0  0  0  0  0  0  0  0  0  0  0  0
    7.9319    5.9526    0.0000 H   0  0  0  0  0  0  0  0  0  0  0  0
    6.5805    6.9654    0.0000 H   0  0  0  0  0  0  0  0  0  0  0  0
    6.4972    6.1727    0.0000 H   0  0  0  0  0  0  0  0  0  0  0  0
    6.5762   -8.2420    0.0000 H   0  0  0  0  0  0  0  0  0  0  0  0
    7.1962   -8.8620    0.0000 H   0  0  0  0  0  0  0  0  0  0  0  0
    7.8162   -8.2420    0.0000 H   0  0  0  0  0  0  0  0  0  0  0  0
    7.7288    3.6542    0.0000 H   0  0  0  0  0  0  0  0  0  0  0  0
    8.0296    6.8824    0.0000 H   0  0  0  0  0  0  0  0  0  0  0  0
    8.1130    7.6751    0.0000 H   0  0  0  0  0  0  0  0  0  0  0  0
    1.6900   -0.7050    0.0000 H   0  0  0  0  0  0  0  0  0  0  0  0
    1.4631   -1.5520    0.0000 H   0  0  0  0  0  0  0  0  0  0  0  0
    2.3100   -1.7789    0.0000 H   0  0  0  0  0  0  0  0  0  0  0  0
    7.7586    8.4942    0.0000 H   0  0  0  0  0  0  0  0  0  0  0  0
    6.9400    8.8084    0.0000 H   0  0  0  0  0  0  0  0  0  0  0  0
    6.6258    7.9898    0.0000 H   0  0  0  0  0  0  0  0  0  0  0  0
  1 16  1  0  0  0  0
  1 32  1  0  0  0  0
  2 24  1  0  0  0  0
  2 27  1  0  0  0  0
  3 21  1  0  0  0  0
  3 35  1  0  0  0  0
  4  9  1  0  0  0  0
  4 10  1  0  0  0  0
  4 13  1  0  0  0  0
  5 11  1  0  0  0  0
  5 12  1  0  0  0  0
  5 14  1  0  0  0  0
  6  8  1  0  0  0  0
  6 29  1  0  0  0  0
  6 33  1  0  0  0  0
  7  8  2  0  0  0  0
  7 30  1  0  0  0  0
  9 11  1  0  0  0  0
  9 37  1  0  0  0  0
  9 38  1  0  0  0  0
 10 12  1  0  0  0  0
 10 39  1  0  0  0  0
 10 40  1  0  0  0  0
 11 41  1  0  0  0  0
 11 42  1  0  0  0  0
 12 43  1  0  0  0  0
 12 44  1  0  0  0  0
 13 15  1  0  0  0  0
 13 45  1  0  0  0  0
 13 46  1  0  0  0  0
 14 16  1  0  0  0  0
 14 17  2  0  0  0  0
 15 18  2  0  0  0  0
 15 19  1  0  0  0  0
 16 20  2  0  0  0  0
 17 22  1  0  0  0  0
 17 47  1  0  0  0  0
 18 21  1  0  0  0  0
 18 48  1  0  0  0  0
 19 23  2  0  0  0  0
 19 49  1  0  0  0  0
 20 25  1  0  0  0  0
 20 50  1  0  0  0  0
 21 24  2  0  0  0  0
 22 25  2  0  0  0  0
 22 51  1  0  0  0  0
 23 24  1  0  0  0  0
 23 52  1  0  0  0  0
 25 53  1  0  0  0  0
 26 27  1  0  0  0  0
 26 28  1  0  0  0  0
 26 54  1  0  0  0  0
 26 55  1  0  0  0  0
 27 56  1  0  0  0  0
 27 57  1  0  0  0  0
 28 30  1  0  0  0  0
 28 58  1  0  0  0  0
 28 59  1  0  0  0  0
 29 31  1  0  0  0  0
 29 60  1  0  0  0  0
 29 61  1  0  0  0  0
 30 33  2  0  0  0  0
 31 34  1  0  0  0  0
 31 62  1  0  0  0  0
 31 63  1  0  0  0  0
 32 64  1  0  0  0  0
 32 65  1  0  0  0  0
 32 66  1  0  0  0  0
 33 67  1  0  0  0  0
 34 36  1  0  0  0  0
 34 68  1  0  0  0  0
 34 69  1  0  0  0  0
 35 70  1  0  0  0  0
 35 71  1  0  0  0  0
 35 72  1  0  0  0  0
 36 73  1  0  0  0  0
 36 74  1  0  0  0  0
 36 75  1  0  0  0  0
M  END
> <PUBCHEM_COMPOUND_CID>
53361302

> <PUBCHEM_COMPOUND_CANONICALIZED>
1

> <PUBCHEM_CACTVS_COMPLEXITY>
606

> <PUBCHEM_CACTVS_HBOND_ACCEPTOR>
7

> <PUBCHEM_CACTVS_HBOND_DONOR>
0

> <PUBCHEM_CACTVS_ROTATABLE_BOND>
13

> <PUBCHEM_CACTVS_SUBSKEYS>
AAADcfB7sAAAAAAAAAAAAAAAAAAAAWAAAAA8YIAAAAAAAAAB0AAAHgAIAAAADAzhngY+xpMIBACiAzRnRACCDAQxsgAY2AA//IgPZiLEsZuXOCrkwBHa6Aew0BIOIAABAAAAUABAAAIAAACgAAAAAAAAAA==

> <PUBCHEM_IUPAC_OPENEYE_NAME>
1-[[4-[3-(1-butyltriazol-4-yl)propoxy]-3-methoxy-phenyl]methyl]-4-(2-methoxyphenyl)piperazine

> <PUBCHEM_IUPAC_CAS_NAME>
1-[[4-[3-(1-butyl-4-triazolyl)propoxy]-3-methoxyphenyl]methyl]-4-(2-methoxyphenyl)piperazine

> <PUBCHEM_IUPAC_NAME_MARKUP>
1-[[4-[3-(1-butyltriazol-4-yl)propoxy]-3-methoxyphenyl]methyl]-4-(2-methoxyphenyl)piperazine

> <PUBCHEM_IUPAC_NAME>
1-[[4-[3-(1-butyltriazol-4-yl)propoxy]-3-methoxyphenyl]methyl]-4-(2-methoxyphenyl)piperazine

> <PUBCHEM_IUPAC_SYSTEMATIC_NAME>
1-[[4-[3-(1-butyl-1,2,3-triazol-4-yl)propoxy]-3-methoxy-phenyl]methyl]-4-(2-methoxyphenyl)piperazine

> <PUBCHEM_IUPAC_TRADITIONAL_NAME>
1-[4-[3-(1-butyltriazol-4-yl)propoxy]-3-methoxy-benzyl]-4-(2-methoxyphenyl)piperazine

> <PUBCHEM_IUPAC_INCHI>
InChI=1S/C28H39N5O3/c1-4-5-14-33-22-24(29-30-33)9-8-19-36-27-13-12-23(20-28(27)35-3)21-31-15-17-32(18-16-31)25-10-6-7-11-26(25)34-2/h6-7,10-13,20,22H,4-5,8-9,14-19,21H2,1-3H3

> <PUBCHEM_IUPAC_INCHIKEY>
CSXDCXKRVCLDQH-UHFFFAOYSA-N

> <PUBCHEM_XLOGP3_AA>
4.6

> <PUBCHEM_EXACT_MASS>
493.30529012

> <PUBCHEM_MOLECULAR_FORMULA>
C28H39N5O3

> <PUBCHEM_MOLECULAR_WEIGHT>
493.6

> <PUBCHEM_OPENEYE_CAN_SMILES>
CCCCN1C=C(N=N1)CCCOC2=C(C=C(C=C2)CN3CCN(CC3)C4=CC=CC=C4OC)OC

> <PUBCHEM_OPENEYE_ISO_SMILES>
CCCCN1C=C(N=N1)CCCOC2=C(C=C(C=C2)CN3CCN(CC3)C4=CC=CC=C4OC)OC

> <PUBCHEM_CACTVS_TPSA>
64.9

> <PUBCHEM_MONOISOTOPIC_WEIGHT>
493.30529012

> <PUBCHEM_TOTAL_CHARGE>
0

> <PUBCHEM_HEAVY_ATOM_COUNT>
36

> <PUBCHEM_ATOM_DEF_STEREO_COUNT>
0

> <PUBCHEM_ATOM_UDEF_STEREO_COUNT>
0

> <PUBCHEM_BOND_DEF_STEREO_COUNT>
0

> <PUBCHEM_BOND_UDEF_STEREO_COUNT>
0

> <PUBCHEM_ISOTOPIC_ATOM_COUNT>
0

> <PUBCHEM_COMPONENT_COUNT>
1

> <PUBCHEM_CACTVS_TAUTO_COUNT>
-1

> <PUBCHEM_COORDINATE_TYPE>
1
5
255

> <PUBCHEM_BONDANNOTATIONS>
14  16  8
14  17  8
15  18  8
15  19  8
16  20  8
17  22  8
18  21  8
19  23  8
20  25  8
21  24  8
22  25  8
23  24  8
30  33  8
6  33  8
6  8  8
7  30  8
7  8  8

$$$$
