155807735
  -OEChem-09292322062D

 77 81  0     1  0  0  0  0  0999 V2000
    7.6962   -5.2003    0.0000 F   0  0  0  0  0  0  0  0  0  0  0  0
    6.6962   -5.2003    0.0000 F   0  0  0  0  0  0  0  0  0  0  0  0
    4.5981    2.1657    0.0000 N   0  0  3  0  0  0  0  0  0  0  0  0
    7.1962   -1.3343    0.0000 N   0  0  3  0  0  0  0  0  0  0  0  0
    5.4641    4.6657    0.0000 N   0  0  0  0  0  0  0  0  0  0  0  0
    4.6420    0.1588    0.0000 N   0  0  0  0  0  0  0  0  0  0  0  0
    8.0901    3.1310    0.0000 N   0  0  0  0  0  0  0  0  0  0  0  0
    7.1962   -2.3343    0.0000 C   0  0  0  0  0  0  0  0  0  0  0  0
    3.7320    1.6657    0.0000 C   0  0  1  0  0  0  0  0  0  0  0  0
    8.0622   -2.8343    0.0000 C   0  0  0  0  0  0  0  0  0  0  0  0
    6.3301   -2.8343    0.0000 C   0  0  0  0  0  0  0  0  0  0  0  0
    4.5981    3.1657    0.0000 C   0  0  0  0  0  0  0  0  0  0  0  0
    2.8660    2.1657    0.0000 C   0  0  0  0  0  0  0  0  0  0  0  0
    5.4641    1.6657    0.0000 C   0  0  0  0  0  0  0  0  0  0  0  0
    5.4641    3.6657    0.0000 C   0  0  1  0  0  0  0  0  0  0  0  0
    8.0622   -3.8343    0.0000 C   0  0  0  0  0  0  0  0  0  0  0  0
    6.3301   -3.8343    0.0000 C   0  0  0  0  0  0  0  0  0  0  0  0
    7.1962   -4.3343    0.0000 C   0  0  0  0  0  0  0  0  0  0  0  0
    5.4641    0.6657    0.0000 C   0  0  0  0  0  0  0  0  0  0  0  0
    6.3301   -0.8343    0.0000 C   0  0  0  0  0  0  0  0  0  0  0  0
    2.0000    1.6657    0.0000 C   0  0  0  0  0  0  0  0  0  0  0  0
    3.7320    0.6657    0.0000 C   0  0  0  0  0  0  0  0  0  0  0  0
    6.3301    0.1657    0.0000 C   0  0  0  0  0  0  0  0  0  0  0  0
    2.0000    0.6657    0.0000 C   0  0  0  0  0  0  0  0  0  0  0  0
    2.8660    0.1657    0.0000 C   0  0  0  0  0  0  0  0  0  0  0  0
    6.3301    3.1657    0.0000 C   0  0  0  0  0  0  0  0  0  0  0  0
    8.0622   -0.8343    0.0000 C   0  0  0  0  0  0  0  0  0  0  0  0
    6.3301    5.1657    0.0000 C   0  0  0  0  0  0  0  0  0  0  0  0
    7.1962    3.6657    0.0000 C   0  0  0  0  0  0  0  0  0  0  0  0
    7.1962    4.6657    0.0000 C   0  0  0  0  0  0  0  0  0  0  0  0
    2.8500   -0.8758    0.0000 C   0  0  0  0  0  0  0  0  0  0  0  0
    3.7480   -1.4036    0.0000 C   0  0  0  0  0  0  0  0  0  0  0  0
    4.6501   -0.8828    0.0000 C   0  0  0  0  0  0  0  0  0  0  0  0
    8.0901    5.2003    0.0000 C   0  0  0  0  0  0  0  0  0  0  0  0
    8.9962    4.6865    0.0000 C   0  0  0  0  0  0  0  0  0  0  0  0
    8.9962    3.6449    0.0000 C   0  0  0  0  0  0  0  0  0  0  0  0
    6.6592   -2.0243    0.0000 H   0  0  0  0  0  0  0  0  0  0  0  0
    3.7320    2.2857    0.0000 H   0  0  0  0  0  0  0  0  0  0  0  0
    8.6728   -2.9420    0.0000 H   0  0  0  0  0  0  0  0  0  0  0  0
    8.2742   -2.2517    0.0000 H   0  0  0  0  0  0  0  0  0  0  0  0
    6.1181   -2.2517    0.0000 H   0  0  0  0  0  0  0  0  0  0  0  0
    5.7196   -2.9420    0.0000 H   0  0  0  0  0  0  0  0  0  0  0  0
    4.3860    3.7483    0.0000 H   0  0  0  0  0  0  0  0  0  0  0  0
    3.9875    3.0580    0.0000 H   0  0  0  0  0  0  0  0  0  0  0  0
    3.2646    2.6406    0.0000 H   0  0  0  0  0  0  0  0  0  0  0  0
    2.4675    2.6406    0.0000 H   0  0  0  0  0  0  0  0  0  0  0  0
    6.0747    1.5580    0.0000 H   0  0  0  0  0  0  0  0  0  0  0  0
    5.6762    2.2483    0.0000 H   0  0  0  0  0  0  0  0  0  0  0  0
    4.9272    3.9757    0.0000 H   0  0  0  0  0  0  0  0  0  0  0  0
    8.2742   -4.4169    0.0000 H   0  0  0  0  0  0  0  0  0  0  0  0
    8.6728   -3.7267    0.0000 H   0  0  0  0  0  0  0  0  0  0  0  0
    5.7196   -3.7267    0.0000 H   0  0  0  0  0  0  0  0  0  0  0  0
    6.1181   -4.4169    0.0000 H   0  0  0  0  0  0  0  0  0  0  0  0
    4.8535    0.7733    0.0000 H   0  0  0  0  0  0  0  0  0  0  0  0
    5.2520    0.0831    0.0000 H   0  0  0  0  0  0  0  0  0  0  0  0
    5.7196   -0.7267    0.0000 H   0  0  0  0  0  0  0  0  0  0  0  0
    6.1181   -1.4169    0.0000 H   0  0  0  0  0  0  0  0  0  0  0  0
    1.7880    2.2483    0.0000 H   0  0  0  0  0  0  0  0  0  0  0  0
    1.3894    1.5580    0.0000 H   0  0  0  0  0  0  0  0  0  0  0  0
    6.9407    0.0580    0.0000 H   0  0  0  0  0  0  0  0  0  0  0  0
    6.5422    0.7483    0.0000 H   0  0  0  0  0  0  0  0  0  0  0  0
    1.3894    0.7733    0.0000 H   0  0  0  0  0  0  0  0  0  0  0  0
    1.7880    0.0831    0.0000 H   0  0  0  0  0  0  0  0  0  0  0  0
    5.9316    2.6907    0.0000 H   0  0  0  0  0  0  0  0  0  0  0  0
    6.7287    2.6907    0.0000 H   0  0  0  0  0  0  0  0  0  0  0  0
    4.9272    4.9757    0.0000 H   0  0  0  0  0  0  0  0  0  0  0  0
    8.3722   -1.3712    0.0000 H   0  0  0  0  0  0  0  0  0  0  0  0
    8.5991   -0.5243    0.0000 H   0  0  0  0  0  0  0  0  0  0  0  0
    7.7522   -0.2974    0.0000 H   0  0  0  0  0  0  0  0  0  0  0  0
    6.7287    5.6406    0.0000 H   0  0  0  0  0  0  0  0  0  0  0  0
    5.9316    5.6406    0.0000 H   0  0  0  0  0  0  0  0  0  0  0  0
    2.3095   -1.1796    0.0000 H   0  0  0  0  0  0  0  0  0  0  0  0
    3.7456   -2.0236    0.0000 H   0  0  0  0  0  0  0  0  0  0  0  0
    5.1882   -1.1907    0.0000 H   0  0  0  0  0  0  0  0  0  0  0  0
    8.0829    5.8203    0.0000 H   0  0  0  0  0  0  0  0  0  0  0  0
    9.5319    4.9986    0.0000 H   0  0  0  0  0  0  0  0  0  0  0  0
    9.5319    3.3328    0.0000 H   0  0  0  0  0  0  0  0  0  0  0  0
  1 18  1  0  0  0  0
  2 18  1  0  0  0  0
  9  3  1  6  0  0  0
  3 12  1  0  0  0  0
  3 14  1  0  0  0  0
  4  8  1  0  0  0  0
  4 20  1  0  0  0  0
  4 27  1  0  0  0  0
  5 15  1  0  0  0  0
  5 28  1  0  0  0  0
  5 66  1  0  0  0  0
  6 22  1  0  0  0  0
  6 33  2  0  0  0  0
  7 29  1  0  0  0  0
  7 36  2  0  0  0  0
  8 10  1  0  0  0  0
  8 11  1  0  0  0  0
  8 37  1  0  0  0  0
  9 13  1  0  0  0  0
  9 22  1  0  0  0  0
  9 38  1  0  0  0  0
 10 16  1  0  0  0  0
 10 39  1  0  0  0  0
 10 40  1  0  0  0  0
 11 17  1  0  0  0  0
 11 41  1  0  0  0  0
 11 42  1  0  0  0  0
 15 12  1  6  0  0  0
 12 43  1  0  0  0  0
 12 44  1  0  0  0  0
 13 21  1  0  0  0  0
 13 45  1  0  0  0  0
 13 46  1  0  0  0  0
 14 19  1  0  0  0  0
 14 47  1  0  0  0  0
 14 48  1  0  0  0  0
 15 26  1  0  0  0  0
 15 49  1  0  0  0  0
 16 18  1  0  0  0  0
 16 50  1  0  0  0  0
 16 51  1  0  0  0  0
 17 18  1  0  0  0  0
 17 52  1  0  0  0  0
 17 53  1  0  0  0  0
 19 23  1  0  0  0  0
 19 54  1  0  0  0  0
 19 55  1  0  0  0  0
 20 23  1  0  0  0  0
 20 56  1  0  0  0  0
 20 57  1  0  0  0  0
 21 24  1  0  0  0  0
 21 58  1  0  0  0  0
 21 59  1  0  0  0  0
 22 25  2  0  0  0  0
 23 60  1  0  0  0  0
 23 61  1  0  0  0  0
 24 25  1  0  0  0  0
 24 62  1  0  0  0  0
 24 63  1  0  0  0  0
 25 31  1  0  0  0  0
 26 29  1  0  0  0  0
 26 64  1  0  0  0  0
 26 65  1  0  0  0  0
 27 67  1  0  0  0  0
 27 68  1  0  0  0  0
 27 69  1  0  0  0  0
 28 30  1  0  0  0  0
 28 70  1  0  0  0  0
 28 71  1  0  0  0  0
 29 30  2  0  0  0  0
 30 34  1  0  0  0  0
 31 32  2  0  0  0  0
 31 72  1  0  0  0  0
 32 33  1  0  0  0  0
 32 73  1  0  0  0  0
 33 74  1  0  0  0  0
 34 35  2  0  0  0  0
 34 75  1  0  0  0  0
 35 36  1  0  0  0  0
 35 76  1  0  0  0  0
 36 77  1  0  0  0  0
M  END
> <PUBCHEM_COMPOUND_CID>
155807735

> <PUBCHEM_COMPOUND_CANONICALIZED>
1

> <PUBCHEM_CACTVS_COMPLEXITY>
668

> <PUBCHEM_CACTVS_HBOND_ACCEPTOR>
7

> <PUBCHEM_CACTVS_HBOND_DONOR>
1

> <PUBCHEM_CACTVS_ROTATABLE_BOND>
9

> <PUBCHEM_CACTVS_SUBSKEYS>
AAADcfB7gYAAAAAAAAAAAAAAAAAAAAAAAAA8eLECAAAAAACx4AAAHQAQAAAADCjBHhQ+gJPIEACgAzRnRACCgCAxAiAI2KA4ZJgIYOLA0ZGUIAhgkADIyAcQgIAOAAAAAAAAAAAAAACAAAQAQAAAAAAAAA==

> <PUBCHEM_IUPAC_OPENEYE_NAME>
N-(4,4-difluorocyclohexyl)-N-methyl-N'-[[(7R)-5,6,7,8-tetrahydro-1,6-naphthyridin-7-yl]methyl]-N'-[(8S)-5,6,7,8-tetrahydroquinolin-8-yl]butane-1,4-diamine

> <PUBCHEM_IUPAC_CAS_NAME>
N-(4,4-difluorocyclohexyl)-N-methyl-N'-[[(7R)-5,6,7,8-tetrahydro-1,6-naphthyridin-7-yl]methyl]-N'-[(8S)-5,6,7,8-tetrahydroquinolin-8-yl]butane-1,4-diamine

> <PUBCHEM_IUPAC_NAME_MARKUP>
<I>N</I>-(4,4-difluorocyclohexyl)-<I>N</I>-methyl-<I>N</I>&apos;-[[(7<I>R</I>)-5,6,7,8-tetrahydro-1,6-naphthyridin-7-yl]methyl]-<I>N</I>&apos;-[(8<I>S</I>)-5,6,7,8-tetrahydroquinolin-8-yl]butane-1,4-diamine

> <PUBCHEM_IUPAC_NAME>
N-(4,4-difluorocyclohexyl)-N-methyl-N'-[[(7R)-5,6,7,8-tetrahydro-1,6-naphthyridin-7-yl]methyl]-N'-[(8S)-5,6,7,8-tetrahydroquinolin-8-yl]butane-1,4-diamine

> <PUBCHEM_IUPAC_SYSTEMATIC_NAME>
N-[4,4-bis(fluoranyl)cyclohexyl]-N-methyl-N'-[[(7R)-5,6,7,8-tetrahydro-1,6-naphthyridin-7-yl]methyl]-N'-[(8S)-5,6,7,8-tetrahydroquinolin-8-yl]butane-1,4-diamine

> <PUBCHEM_IUPAC_TRADITIONAL_NAME>
(4,4-difluorocyclohexyl)-methyl-[4-[[(7R)-5,6,7,8-tetrahydro-1,6-naphthyridin-7-yl]methyl-[(8S)-5,6,7,8-tetrahydroquinolin-8-yl]amino]butyl]amine

> <PUBCHEM_IUPAC_INCHI>
InChI=1S/C29H41F2N5/c1-35(25-11-13-29(30,31)14-12-25)17-2-3-18-36(27-10-4-7-22-8-5-16-33-28(22)27)21-24-19-26-23(20-34-24)9-6-15-32-26/h5-6,8-9,15-16,24-25,27,34H,2-4,7,10-14,17-21H2,1H3/t24-,27+/m1/s1

> <PUBCHEM_IUPAC_INCHIKEY>
OSKSLFQSLKWAIH-SQHAQQRYSA-N

> <PUBCHEM_XLOGP3_AA>
4.3

> <PUBCHEM_EXACT_MASS>
497.33300265

> <PUBCHEM_MOLECULAR_FORMULA>
C29H41F2N5

> <PUBCHEM_MOLECULAR_WEIGHT>
497.7

> <PUBCHEM_OPENEYE_CAN_SMILES>
CN(CCCCN(CC1CC2=C(CN1)C=CC=N2)C3CCCC4=C3N=CC=C4)C5CCC(CC5)(F)F

> <PUBCHEM_OPENEYE_ISO_SMILES>
CN(CCCCN(C[C@H]1CC2=C(CN1)C=CC=N2)[C@H]3CCCC4=C3N=CC=C4)C5CCC(CC5)(F)F

> <PUBCHEM_CACTVS_TPSA>
44.3

> <PUBCHEM_MONOISOTOPIC_WEIGHT>
497.33300265

> <PUBCHEM_TOTAL_CHARGE>
0

> <PUBCHEM_HEAVY_ATOM_COUNT>
36

> <PUBCHEM_ATOM_DEF_STEREO_COUNT>
2

> <PUBCHEM_ATOM_UDEF_STEREO_COUNT>
0

> <PUBCHEM_BOND_DEF_STEREO_COUNT>
0

> <PUBCHEM_BOND_UDEF_STEREO_COUNT>
0

> <PUBCHEM_ISOTOPIC_ATOM_COUNT>
0

> <PUBCHEM_COMPONENT_COUNT>
1

> <PUBCHEM_CACTVS_TAUTO_COUNT>
-1

> <PUBCHEM_COORDINATE_TYPE>
1
5
255

> <PUBCHEM_BONDANNOTATIONS>
15  12  6
22  25  8
25  31  8
29  30  8
9  3  6
30  34  8
31  32  8
32  33  8
34  35  8
35  36  8
6  22  8
6  33  8
7  29  8
7  36  8

$$$$
