130431279
  -OEChem-09292322422D

 36 37  0     0  0  0  0  0  0999 V2000
    2.8660   -2.3100    0.0000 Cl  0  0  0  0  0  0  0  0  0  0  0  0
    2.8660   -0.3100    0.0000 O   0  0  0  0  0  0  0  0  0  0  0  0
    4.5981    0.6900    0.0000 N   0  0  0  0  0  0  0  0  0  0  0  0
    4.5981    2.6900    0.0000 N   0  0  0  0  0  0  0  0  0  0  0  0
    5.4641    1.1900    0.0000 C   0  0  0  0  0  0  0  0  0  0  0  0
    3.7320    1.1900    0.0000 C   0  0  0  0  0  0  0  0  0  0  0  0
    5.4641    2.1900    0.0000 C   0  0  0  0  0  0  0  0  0  0  0  0
    3.7320    2.1900    0.0000 C   0  0  0  0  0  0  0  0  0  0  0  0
    4.5981   -0.3100    0.0000 C   0  0  0  0  0  0  0  0  0  0  0  0
    5.4641   -0.8100    0.0000 C   0  0  0  0  0  0  0  0  0  0  0  0
    3.7320   -0.8100    0.0000 C   0  0  0  0  0  0  0  0  0  0  0  0
    5.4641   -1.8100    0.0000 C   0  0  0  0  0  0  0  0  0  0  0  0
    3.7320   -1.8100    0.0000 C   0  0  0  0  0  0  0  0  0  0  0  0
    6.3301   -2.3100    0.0000 C   0  0  0  0  0  0  0  0  0  0  0  0
    4.5981   -2.3100    0.0000 C   0  0  0  0  0  0  0  0  0  0  0  0
    6.3301   -3.3100    0.0000 C   0  0  0  0  0  0  0  0  0  0  0  0
    2.0000   -0.8100    0.0000 C   0  0  0  0  0  0  0  0  0  0  0  0
    5.6762    0.6074    0.0000 H   0  0  0  0  0  0  0  0  0  0  0  0
    6.0747    1.2977    0.0000 H   0  0  0  0  0  0  0  0  0  0  0  0
    3.1215    1.2977    0.0000 H   0  0  0  0  0  0  0  0  0  0  0  0
    3.5200    0.6074    0.0000 H   0  0  0  0  0  0  0  0  0  0  0  0
    6.0747    2.0823    0.0000 H   0  0  0  0  0  0  0  0  0  0  0  0
    5.6762    2.7726    0.0000 H   0  0  0  0  0  0  0  0  0  0  0  0
    3.5200    2.7726    0.0000 H   0  0  0  0  0  0  0  0  0  0  0  0
    3.1215    2.0823    0.0000 H   0  0  0  0  0  0  0  0  0  0  0  0
    4.5981    3.3100    0.0000 H   0  0  0  0  0  0  0  0  0  0  0  0
    6.0010   -0.5000    0.0000 H   0  0  0  0  0  0  0  0  0  0  0  0
    6.9407   -2.4177    0.0000 H   0  0  0  0  0  0  0  0  0  0  0  0
    6.5422   -1.7274    0.0000 H   0  0  0  0  0  0  0  0  0  0  0  0
    4.5981   -2.9300    0.0000 H   0  0  0  0  0  0  0  0  0  0  0  0
    5.7101   -3.3100    0.0000 H   0  0  0  0  0  0  0  0  0  0  0  0
    6.3301   -3.9300    0.0000 H   0  0  0  0  0  0  0  0  0  0  0  0
    6.9501   -3.3100    0.0000 H   0  0  0  0  0  0  0  0  0  0  0  0
    1.6900   -0.2731    0.0000 H   0  0  0  0  0  0  0  0  0  0  0  0
    1.4631   -1.1200    0.0000 H   0  0  0  0  0  0  0  0  0  0  0  0
    2.3100   -1.3469    0.0000 H   0  0  0  0  0  0  0  0  0  0  0  0
  1 13  1  0  0  0  0
  2 11  1  0  0  0  0
  2 17  1  0  0  0  0
  3  5  1  0  0  0  0
  3  6  1  0  0  0  0
  3  9  1  0  0  0  0
  4  7  1  0  0  0  0
  4  8  1  0  0  0  0
  4 26  1  0  0  0  0
  5  7  1  0  0  0  0
  5 18  1  0  0  0  0
  5 19  1  0  0  0  0
  6  8  1  0  0  0  0
  6 20  1  0  0  0  0
  6 21  1  0  0  0  0
  7 22  1  0  0  0  0
  7 23  1  0  0  0  0
  8 24  1  0  0  0  0
  8 25  1  0  0  0  0
  9 10  1  0  0  0  0
  9 11  2  0  0  0  0
 10 12  2  0  0  0  0
 10 27  1  0  0  0  0
 11 13  1  0  0  0  0
 12 14  1  0  0  0  0
 12 15  1  0  0  0  0
 13 15  2  0  0  0  0
 14 16  1  0  0  0  0
 14 28  1  0  0  0  0
 14 29  1  0  0  0  0
 15 30  1  0  0  0  0
 16 31  1  0  0  0  0
 16 32  1  0  0  0  0
 16 33  1  0  0  0  0
 17 34  1  0  0  0  0
 17 35  1  0  0  0  0
 17 36  1  0  0  0  0
M  END
> <PUBCHEM_COMPOUND_CID>
130431279

> <PUBCHEM_COMPOUND_CANONICALIZED>
1

> <PUBCHEM_CACTVS_COMPLEXITY>
234

> <PUBCHEM_CACTVS_HBOND_ACCEPTOR>
3

> <PUBCHEM_CACTVS_HBOND_DONOR>
1

> <PUBCHEM_CACTVS_ROTATABLE_BOND>
3

> <PUBCHEM_CACTVS_SUBSKEYS>
AAADceBzIAAEAAAAAAAAAAAAAAAAAAAAAAA8QAAAAAAAAAABAAAAHgIQAAAADA7BmCYyxoPABACAAiRCQACCCAAhJ0AAiIANb4gOZiPFs5uVMChk0BHY6AeQwIAOIAAAYAIAGABAAADABAAwAAAAAAAAAA==

> <PUBCHEM_IUPAC_OPENEYE_NAME>
1-(3-chloro-5-ethyl-2-methoxy-phenyl)piperazine

> <PUBCHEM_IUPAC_CAS_NAME>
1-(3-chloro-5-ethyl-2-methoxyphenyl)piperazine

> <PUBCHEM_IUPAC_NAME_MARKUP>
1-(3-chloro-5-ethyl-2-methoxyphenyl)piperazine

> <PUBCHEM_IUPAC_NAME>
1-(3-chloro-5-ethyl-2-methoxyphenyl)piperazine

> <PUBCHEM_IUPAC_SYSTEMATIC_NAME>
1-(3-chloranyl-5-ethyl-2-methoxy-phenyl)piperazine

> <PUBCHEM_IUPAC_TRADITIONAL_NAME>
1-(3-chloro-5-ethyl-2-methoxy-phenyl)piperazine

> <PUBCHEM_IUPAC_INCHI>
InChI=1S/C13H19ClN2O/c1-3-10-8-11(14)13(17-2)12(9-10)16-6-4-15-5-7-16/h8-9,15H,3-7H2,1-2H3

> <PUBCHEM_IUPAC_INCHIKEY>
GPALOBCMKKYZEA-UHFFFAOYSA-N

> <PUBCHEM_XLOGP3_AA>
2.8

> <PUBCHEM_EXACT_MASS>
254.1185909

> <PUBCHEM_MOLECULAR_FORMULA>
C13H19ClN2O

> <PUBCHEM_MOLECULAR_WEIGHT>
254.75

> <PUBCHEM_OPENEYE_CAN_SMILES>
CCC1=CC(=C(C(=C1)Cl)OC)N2CCNCC2

> <PUBCHEM_OPENEYE_ISO_SMILES>
CCC1=CC(=C(C(=C1)Cl)OC)N2CCNCC2

> <PUBCHEM_CACTVS_TPSA>
24.5

> <PUBCHEM_MONOISOTOPIC_WEIGHT>
254.1185909

> <PUBCHEM_TOTAL_CHARGE>
0

> <PUBCHEM_HEAVY_ATOM_COUNT>
17

> <PUBCHEM_ATOM_DEF_STEREO_COUNT>
0

> <PUBCHEM_ATOM_UDEF_STEREO_COUNT>
0

> <PUBCHEM_BOND_DEF_STEREO_COUNT>
0

> <PUBCHEM_BOND_UDEF_STEREO_COUNT>
0

> <PUBCHEM_ISOTOPIC_ATOM_COUNT>
0

> <PUBCHEM_COMPONENT_COUNT>
1

> <PUBCHEM_CACTVS_TAUTO_COUNT>
-1

> <PUBCHEM_COORDINATE_TYPE>
1
5
255

> <PUBCHEM_BONDANNOTATIONS>
10  12  8
11  13  8
12  15  8
13  15  8
9  10  8
9  11  8

$$$$
