72191068
  -OEChem-09292322342D

 64 68  0     0  0  0  0  0  0999 V2000
    2.9945    5.0001    0.0000 O   0  0  0  0  0  0  0  0  0  0  0  0
    8.4180   -6.7897    0.0000 O   0  0  0  0  0  0  0  0  0  0  0  0
    6.1591    3.5911    0.0000 N   0  0  0  0  0  0  0  0  0  0  0  0
    4.9836    5.2091    0.0000 N   0  0  0  0  0  0  0  0  0  0  0  0
    7.1090   -0.6630    0.0000 N   0  0  0  0  0  0  0  0  0  0  0  0
    8.1090   -0.6630    0.0000 N   0  0  0  0  0  0  0  0  0  0  0  0
    8.4180   -1.6141    0.0000 N   0  0  0  0  0  0  0  0  0  0  0  0
    7.1090   -7.7407    0.0000 N   0  0  0  0  0  0  0  0  0  0  0  0
    5.1646    3.4866    0.0000 C   0  0  0  0  0  0  0  0  0  0  0  0
    6.5659    4.5046    0.0000 C   0  0  0  0  0  0  0  0  0  0  0  0
    4.5768    4.2956    0.0000 C   0  0  0  0  0  0  0  0  0  0  0  0
    5.9781    5.3137    0.0000 C   0  0  0  0  0  0  0  0  0  0  0  0
    6.7469    2.7821    0.0000 C   0  0  0  0  0  0  0  0  0  0  0  0
    6.3402    1.8685    0.0000 C   0  0  0  0  0  0  0  0  0  0  0  0
    6.9280    1.0595    0.0000 C   0  0  0  0  0  0  0  0  0  0  0  0
    4.3958    6.0182    0.0000 C   0  0  0  0  0  0  0  0  0  0  0  0
    6.5212    0.1460    0.0000 C   0  0  0  0  0  0  0  0  0  0  0  0
    3.4013    5.9136    0.0000 C   0  0  0  0  0  0  0  0  0  0  0  0
    4.8025    6.9317    0.0000 C   0  0  0  0  0  0  0  0  0  0  0  0
    2.8135    6.7226    0.0000 C   0  0  0  0  0  0  0  0  0  0  0  0
    4.2147    7.7407    0.0000 C   0  0  0  0  0  0  0  0  0  0  0  0
    3.2202    7.6362    0.0000 C   0  0  0  0  0  0  0  0  0  0  0  0
    6.8000   -1.6141    0.0000 C   0  0  0  0  0  0  0  0  0  0  0  0
    7.6090   -2.2019    0.0000 C   0  0  0  0  0  0  0  0  0  0  0  0
    7.6090   -3.2019    0.0000 C   0  0  0  0  0  0  0  0  0  0  0  0
    2.0000    4.8956    0.0000 C   0  0  0  0  0  0  0  0  0  0  0  0
    8.4750   -3.7019    0.0000 C   0  0  0  0  0  0  0  0  0  0  0  0
    6.7430   -3.7019    0.0000 C   0  0  0  0  0  0  0  0  0  0  0  0
    7.6090   -5.2019    0.0000 C   0  0  0  0  0  0  0  0  0  0  0  0
    8.4750   -4.7019    0.0000 C   0  0  0  0  0  0  0  0  0  0  0  0
    6.7430   -4.7019    0.0000 C   0  0  0  0  0  0  0  0  0  0  0  0
    7.6090   -6.2019    0.0000 C   0  0  0  0  0  0  0  0  0  0  0  0
    6.8000   -6.7897    0.0000 C   0  0  0  0  0  0  0  0  0  0  0  0
    8.1090   -7.7407    0.0000 C   0  0  0  0  0  0  0  0  0  0  0  0
    4.6074    3.2148    0.0000 H   0  0  0  0  0  0  0  0  0  0  0  0
    5.3355    2.8906    0.0000 H   0  0  0  0  0  0  0  0  0  0  0  0
    7.0799    4.1579    0.0000 H   0  0  0  0  0  0  0  0  0  0  0  0
    6.9966    4.9506    0.0000 H   0  0  0  0  0  0  0  0  0  0  0  0
    4.0628    4.6423    0.0000 H   0  0  0  0  0  0  0  0  0  0  0  0
    4.1461    3.8496    0.0000 H   0  0  0  0  0  0  0  0  0  0  0  0
    6.5353    5.5855    0.0000 H   0  0  0  0  0  0  0  0  0  0  0  0
    5.8072    5.9096    0.0000 H   0  0  0  0  0  0  0  0  0  0  0  0
    7.2609    2.4354    0.0000 H   0  0  0  0  0  0  0  0  0  0  0  0
    7.1776    3.2281    0.0000 H   0  0  0  0  0  0  0  0  0  0  0  0
    5.8262    2.2152    0.0000 H   0  0  0  0  0  0  0  0  0  0  0  0
    5.9095    1.4226    0.0000 H   0  0  0  0  0  0  0  0  0  0  0  0
    7.4420    0.7128    0.0000 H   0  0  0  0  0  0  0  0  0  0  0  0
    7.3587    1.5055    0.0000 H   0  0  0  0  0  0  0  0  0  0  0  0
    6.0072    0.4927    0.0000 H   0  0  0  0  0  0  0  0  0  0  0  0
    6.0906   -0.3000    0.0000 H   0  0  0  0  0  0  0  0  0  0  0  0
    5.4191    6.9965    0.0000 H   0  0  0  0  0  0  0  0  0  0  0  0
    2.1969    6.6578    0.0000 H   0  0  0  0  0  0  0  0  0  0  0  0
    4.4669    8.3071    0.0000 H   0  0  0  0  0  0  0  0  0  0  0  0
    2.8558    8.1378    0.0000 H   0  0  0  0  0  0  0  0  0  0  0  0
    6.2104   -1.8057    0.0000 H   0  0  0  0  0  0  0  0  0  0  0  0
    1.9352    5.5122    0.0000 H   0  0  0  0  0  0  0  0  0  0  0  0
    1.3834    4.8308    0.0000 H   0  0  0  0  0  0  0  0  0  0  0  0
    2.0648    4.2790    0.0000 H   0  0  0  0  0  0  0  0  0  0  0  0
    9.0120   -3.3919    0.0000 H   0  0  0  0  0  0  0  0  0  0  0  0
    6.2061   -3.3919    0.0000 H   0  0  0  0  0  0  0  0  0  0  0  0
    9.0120   -5.0119    0.0000 H   0  0  0  0  0  0  0  0  0  0  0  0
    6.2061   -5.0119    0.0000 H   0  0  0  0  0  0  0  0  0  0  0  0
    6.2104   -6.5981    0.0000 H   0  0  0  0  0  0  0  0  0  0  0  0
    8.4734   -8.2423    0.0000 H   0  0  0  0  0  0  0  0  0  0  0  0
  1 18  1  0  0  0  0
  1 26  1  0  0  0  0
  2 32  1  0  0  0  0
  2 34  1  0  0  0  0
  3  9  1  0  0  0  0
  3 10  1  0  0  0  0
  3 13  1  0  0  0  0
  4 11  1  0  0  0  0
  4 12  1  0  0  0  0
  4 16  1  0  0  0  0
  5  6  1  0  0  0  0
  5 17  1  0  0  0  0
  5 23  1  0  0  0  0
  6  7  2  0  0  0  0
  7 24  1  0  0  0  0
  8 33  1  0  0  0  0
  8 34  2  0  0  0  0
  9 11  1  0  0  0  0
  9 35  1  0  0  0  0
  9 36  1  0  0  0  0
 10 12  1  0  0  0  0
 10 37  1  0  0  0  0
 10 38  1  0  0  0  0
 11 39  1  0  0  0  0
 11 40  1  0  0  0  0
 12 41  1  0  0  0  0
 12 42  1  0  0  0  0
 13 14  1  0  0  0  0
 13 43  1  0  0  0  0
 13 44  1  0  0  0  0
 14 15  1  0  0  0  0
 14 45  1  0  0  0  0
 14 46  1  0  0  0  0
 15 17  1  0  0  0  0
 15 47  1  0  0  0  0
 15 48  1  0  0  0  0
 16 18  1  0  0  0  0
 16 19  2  0  0  0  0
 17 49  1  0  0  0  0
 17 50  1  0  0  0  0
 18 20  2  0  0  0  0
 19 21  1  0  0  0  0
 19 51  1  0  0  0  0
 20 22  1  0  0  0  0
 20 52  1  0  0  0  0
 21 22  2  0  0  0  0
 21 53  1  0  0  0  0
 22 54  1  0  0  0  0
 23 24  2  0  0  0  0
 23 55  1  0  0  0  0
 24 25  1  0  0  0  0
 25 27  2  0  0  0  0
 25 28  1  0  0  0  0
 26 56  1  0  0  0  0
 26 57  1  0  0  0  0
 26 58  1  0  0  0  0
 27 30  1  0  0  0  0
 27 59  1  0  0  0  0
 28 31  2  0  0  0  0
 28 60  1  0  0  0  0
 29 30  2  0  0  0  0
 29 31  1  0  0  0  0
 29 32  1  0  0  0  0
 30 61  1  0  0  0  0
 31 62  1  0  0  0  0
 32 33  2  0  0  0  0
 33 63  1  0  0  0  0
 34 64  1  0  0  0  0
M  END
> <PUBCHEM_COMPOUND_CID>
72191068

> <PUBCHEM_COMPOUND_CANONICALIZED>
1

> <PUBCHEM_CACTVS_COMPLEXITY>
596

> <PUBCHEM_CACTVS_HBOND_ACCEPTOR>
7

> <PUBCHEM_CACTVS_HBOND_DONOR>
0

> <PUBCHEM_CACTVS_ROTATABLE_BOND>
9

> <PUBCHEM_CACTVS_SUBSKEYS>
AAADceB7sAAAAAAAAAAAAAAAAAAAAWLAAAA8YIAAAAAAAAAB9AAAHgAIAAAADAzBngY+xpMIFECqA7R31ASCjCQ/8iAY2CG/fNgOZrLEtbudMShkxhHY6YeYyPCOQAAAAAAAEACAAAAAAAAgAAAAAAAAAA==

> <PUBCHEM_IUPAC_OPENEYE_NAME>
5-[4-[1-[4-[4-(2-methoxyphenyl)piperazin-1-yl]butyl]triazol-4-yl]phenyl]oxazole

> <PUBCHEM_IUPAC_CAS_NAME>
5-[4-[1-[4-[4-(2-methoxyphenyl)-1-piperazinyl]butyl]-4-triazolyl]phenyl]oxazole

> <PUBCHEM_IUPAC_NAME_MARKUP>
5-[4-[1-[4-[4-(2-methoxyphenyl)piperazin-1-yl]butyl]triazol-4-yl]phenyl]-1,3-oxazole

> <PUBCHEM_IUPAC_NAME>
5-[4-[1-[4-[4-(2-methoxyphenyl)piperazin-1-yl]butyl]triazol-4-yl]phenyl]-1,3-oxazole

> <PUBCHEM_IUPAC_SYSTEMATIC_NAME>
5-[4-[1-[4-[4-(2-methoxyphenyl)piperazin-1-yl]butyl]-1,2,3-triazol-4-yl]phenyl]-1,3-oxazole

> <PUBCHEM_IUPAC_TRADITIONAL_NAME>
5-[4-[1-[4-[4-(2-methoxyphenyl)piperazino]butyl]triazol-4-yl]phenyl]oxazole

> <PUBCHEM_IUPAC_INCHI>
InChI=1S/C26H30N6O2/c1-33-25-7-3-2-6-24(25)31-16-14-30(15-17-31)12-4-5-13-32-19-23(28-29-32)21-8-10-22(11-9-21)26-18-27-20-34-26/h2-3,6-11,18-20H,4-5,12-17H2,1H3

> <PUBCHEM_IUPAC_INCHIKEY>
TYJMYUYKJNIAGF-UHFFFAOYSA-N

> <PUBCHEM_XLOGP3_AA>
3.7

> <PUBCHEM_EXACT_MASS>
458.24302422

> <PUBCHEM_MOLECULAR_FORMULA>
C26H30N6O2

> <PUBCHEM_MOLECULAR_WEIGHT>
458.6

> <PUBCHEM_OPENEYE_CAN_SMILES>
COC1=CC=CC=C1N2CCN(CC2)CCCCN3C=C(N=N3)C4=CC=C(C=C4)C5=CN=CO5

> <PUBCHEM_OPENEYE_ISO_SMILES>
COC1=CC=CC=C1N2CCN(CC2)CCCCN3C=C(N=N3)C4=CC=C(C=C4)C5=CN=CO5

> <PUBCHEM_CACTVS_TPSA>
72.4

> <PUBCHEM_MONOISOTOPIC_WEIGHT>
458.24302422

> <PUBCHEM_TOTAL_CHARGE>
0

> <PUBCHEM_HEAVY_ATOM_COUNT>
34

> <PUBCHEM_ATOM_DEF_STEREO_COUNT>
0

> <PUBCHEM_ATOM_UDEF_STEREO_COUNT>
0

> <PUBCHEM_BOND_DEF_STEREO_COUNT>
0

> <PUBCHEM_BOND_UDEF_STEREO_COUNT>
0

> <PUBCHEM_ISOTOPIC_ATOM_COUNT>
0

> <PUBCHEM_COMPONENT_COUNT>
1

> <PUBCHEM_CACTVS_TAUTO_COUNT>
-1

> <PUBCHEM_COORDINATE_TYPE>
1
5
255

> <PUBCHEM_BONDANNOTATIONS>
16  18  8
16  19  8
18  20  8
19  21  8
2  32  8
2  34  8
20  22  8
21  22  8
23  24  8
25  27  8
25  28  8
27  30  8
28  31  8
29  30  8
29  31  8
32  33  8
5  23  8
5  6  8
6  7  8
7  24  8
8  33  8
8  34  8

$$$$
