11701907
  -OEChem-09292322482D

 47 50  0     1  0  0  0  0  0999 V2000
    5.9418    1.6784    0.0000 N   0  0  3  0  0  0  0  0  0  0  0  0
    2.6067   -0.4887    0.0000 N   0  0  0  0  0  0  0  0  0  0  0  0
    7.6738    1.6784    0.0000 C   0  0  0  0  0  0  0  0  0  0  0  0
    8.6738    1.6784    0.0000 C   0  0  0  0  0  0  0  0  0  0  0  0
    8.1738    2.5444    0.0000 C   0  0  0  0  0  0  0  0  0  0  0  0
    6.8078    1.1784    0.0000 C   0  0  0  0  0  0  0  0  0  0  0  0
    5.0757    1.1784    0.0000 C   0  0  0  0  0  0  0  0  0  0  0  0
    5.9418    2.6784    0.0000 C   0  0  0  0  0  0  0  0  0  0  0  0
    5.0757    0.1784    0.0000 C   0  0  0  0  0  0  0  0  0  0  0  0
    5.0757    3.1784    0.0000 C   0  0  0  0  0  0  0  0  0  0  0  0
    4.2097   -0.3216    0.0000 C   0  0  0  0  0  0  0  0  0  0  0  0
    4.2097    2.6784    0.0000 C   0  0  0  0  0  0  0  0  0  0  0  0
    3.3437    0.1784    0.0000 C   0  0  0  0  0  0  0  0  0  0  0  0
    4.2097    1.6784    0.0000 C   0  0  0  0  0  0  0  0  0  0  0  0
    3.3437    1.1784    0.0000 C   0  0  0  0  0  0  0  0  0  0  0  0
    4.0005   -1.2934    0.0000 C   0  0  0  0  0  0  0  0  0  0  0  0
    3.0118   -1.3965    0.0000 C   0  0  0  0  0  0  0  0  0  0  0  0
    4.6213   -2.1222    0.0000 C   0  0  0  0  0  0  0  0  0  0  0  0
    2.5753   -2.3355    0.0000 C   0  0  0  0  0  0  0  0  0  0  0  0
    4.2066   -3.0710    0.0000 C   0  0  0  0  0  0  0  0  0  0  0  0
    3.1767   -3.1784    0.0000 C   0  0  0  0  0  0  0  0  0  0  0  0
    7.8343    1.0795    0.0000 H   0  0  0  0  0  0  0  0  0  0  0  0
    8.7815    1.0678    0.0000 H   0  0  0  0  0  0  0  0  0  0  0  0
    9.2564    1.8904    0.0000 H   0  0  0  0  0  0  0  0  0  0  0  0
    8.6488    2.9429    0.0000 H   0  0  0  0  0  0  0  0  0  0  0  0
    7.6989    2.9429    0.0000 H   0  0  0  0  0  0  0  0  0  0  0  0
    6.4093    0.7034    0.0000 H   0  0  0  0  0  0  0  0  0  0  0  0
    7.2063    0.7034    0.0000 H   0  0  0  0  0  0  0  0  0  0  0  0
    4.8637    1.7610    0.0000 H   0  0  0  0  0  0  0  0  0  0  0  0
    4.4652    1.0707    0.0000 H   0  0  0  0  0  0  0  0  0  0  0  0
    6.5524    2.5707    0.0000 H   0  0  0  0  0  0  0  0  0  0  0  0
    6.1538    3.2610    0.0000 H   0  0  0  0  0  0  0  0  0  0  0  0
    5.2878   -0.4042    0.0000 H   0  0  0  0  0  0  0  0  0  0  0  0
    5.6863    0.2860    0.0000 H   0  0  0  0  0  0  0  0  0  0  0  0
    5.4743    3.6533    0.0000 H   0  0  0  0  0  0  0  0  0  0  0  0
    4.6772    3.6533    0.0000 H   0  0  0  0  0  0  0  0  0  0  0  0
    3.9977    3.2610    0.0000 H   0  0  0  0  0  0  0  0  0  0  0  0
    3.5991    2.5707    0.0000 H   0  0  0  0  0  0  0  0  0  0  0  0
    4.4218    1.0958    0.0000 H   0  0  0  0  0  0  0  0  0  0  0  0
    4.8203    1.7860    0.0000 H   0  0  0  0  0  0  0  0  0  0  0  0
    3.1316    1.7610    0.0000 H   0  0  0  0  0  0  0  0  0  0  0  0
    2.7331    1.0707    0.0000 H   0  0  0  0  0  0  0  0  0  0  0  0
    2.0000   -0.3609    0.0000 H   0  0  0  0  0  0  0  0  0  0  0  0
    5.2371   -2.0508    0.0000 H   0  0  0  0  0  0  0  0  0  0  0  0
    1.9579   -2.3926    0.0000 H   0  0  0  0  0  0  0  0  0  0  0  0
    4.5725   -3.5715    0.0000 H   0  0  0  0  0  0  0  0  0  0  0  0
    2.9219   -3.7436    0.0000 H   0  0  0  0  0  0  0  0  0  0  0  0
  1  6  1  0  0  0  0
  1  7  1  0  0  0  0
  1  8  1  0  0  0  0
  2 13  1  0  0  0  0
  2 17  1  0  0  0  0
  2 43  1  0  0  0  0
  3  4  1  0  0  0  0
  3  5  1  0  0  0  0
  3  6  1  0  0  0  0
  3 22  1  0  0  0  0
  4  5  1  0  0  0  0
  4 23  1  0  0  0  0
  4 24  1  0  0  0  0
  5 25  1  0  0  0  0
  5 26  1  0  0  0  0
  6 27  1  0  0  0  0
  6 28  1  0  0  0  0
  7  9  1  0  0  0  0
  7 29  1  0  0  0  0
  7 30  1  0  0  0  0
  8 10  1  0  0  0  0
  8 31  1  0  0  0  0
  8 32  1  0  0  0  0
  9 11  1  0  0  0  0
  9 33  1  0  0  0  0
  9 34  1  0  0  0  0
 10 12  1  0  0  0  0
 10 35  1  0  0  0  0
 10 36  1  0  0  0  0
 11 13  2  0  0  0  0
 11 16  1  0  0  0  0
 12 14  1  0  0  0  0
 12 37  1  0  0  0  0
 12 38  1  0  0  0  0
 13 15  1  0  0  0  0
 14 15  1  0  0  0  0
 14 39  1  0  0  0  0
 14 40  1  0  0  0  0
 15 41  1  0  0  0  0
 15 42  1  0  0  0  0
 16 17  1  0  0  0  0
 16 18  2  0  0  0  0
 17 19  2  0  0  0  0
 18 20  1  0  0  0  0
 18 44  1  0  0  0  0
 19 21  1  0  0  0  0
 19 45  1  0  0  0  0
 20 21  2  0  0  0  0
 20 46  1  0  0  0  0
 21 47  1  0  0  0  0
M  END
> <PUBCHEM_COMPOUND_CID>
11701907

> <PUBCHEM_COMPOUND_CANONICALIZED>
1

> <PUBCHEM_CACTVS_COMPLEXITY>
339

> <PUBCHEM_CACTVS_HBOND_ACCEPTOR>
1

> <PUBCHEM_CACTVS_HBOND_DONOR>
1

> <PUBCHEM_CACTVS_ROTATABLE_BOND>
2

> <PUBCHEM_CACTVS_SUBSKEYS>
AAADceB7AAAAAAAAAAAAAAAAGAAAAWAAAAAwAAAAAAAAAFix8AAAHAAQAAAADQjBHgQwwPPJkACgAyRiRACCgCAhAiAImSA4ZJgIIOLAkZGEIAhgkADIyAcQgMAOgAAAAAACAAAAAAAAAAQAAAAAAAAAAA==

> <PUBCHEM_IUPAC_OPENEYE_NAME>
7-(cyclopropylmethyl)-7,17-diazatricyclo[8.7.0.011,16]heptadeca-1(10),11,13,15-tetraene

> <PUBCHEM_IUPAC_CAS_NAME>
7-(cyclopropylmethyl)-7,17-diazatricyclo[8.7.0.011,16]heptadeca-1(10),11,13,15-tetraene

> <PUBCHEM_IUPAC_NAME_MARKUP>
7-(cyclopropylmethyl)-7,17-diazatricyclo[8.7.0.0<SUP>11,16</SUP>]heptadeca-1(10),11,13,15-tetraene

> <PUBCHEM_IUPAC_NAME>
7-(cyclopropylmethyl)-7,17-diazatricyclo[8.7.0.011,16]heptadeca-1(10),11,13,15-tetraene

> <PUBCHEM_IUPAC_SYSTEMATIC_NAME>
7-(cyclopropylmethyl)-7,17-diazatricyclo[8.7.0.011,16]heptadeca-1(10),11,13,15-tetraene

> <PUBCHEM_IUPAC_TRADITIONAL_NAME>
7-(cyclopropylmethyl)-7,17-diazatricyclo[8.7.0.011,16]heptadeca-1(10),11,13,15-tetraene

> <PUBCHEM_IUPAC_INCHI>
InChI=1S/C19H26N2/c1-2-7-19-17(16-6-3-4-8-18(16)20-19)11-13-21(12-5-1)14-15-9-10-15/h3-4,6,8,15,20H,1-2,5,7,9-14H2

> <PUBCHEM_IUPAC_INCHIKEY>
CNISFKKNHMIEDJ-UHFFFAOYSA-N

> <PUBCHEM_XLOGP3_AA>
4.2

> <PUBCHEM_EXACT_MASS>
282.209598838

> <PUBCHEM_MOLECULAR_FORMULA>
C19H26N2

> <PUBCHEM_MOLECULAR_WEIGHT>
282.4

> <PUBCHEM_OPENEYE_CAN_SMILES>
C1CCC2=C(CCN(CC1)CC3CC3)C4=CC=CC=C4N2

> <PUBCHEM_OPENEYE_ISO_SMILES>
C1CCC2=C(CCN(CC1)CC3CC3)C4=CC=CC=C4N2

> <PUBCHEM_CACTVS_TPSA>
19

> <PUBCHEM_MONOISOTOPIC_WEIGHT>
282.209598838

> <PUBCHEM_TOTAL_CHARGE>
0

> <PUBCHEM_HEAVY_ATOM_COUNT>
21

> <PUBCHEM_ATOM_DEF_STEREO_COUNT>
0

> <PUBCHEM_ATOM_UDEF_STEREO_COUNT>
0

> <PUBCHEM_BOND_DEF_STEREO_COUNT>
0

> <PUBCHEM_BOND_UDEF_STEREO_COUNT>
0

> <PUBCHEM_ISOTOPIC_ATOM_COUNT>
0

> <PUBCHEM_COMPONENT_COUNT>
1

> <PUBCHEM_CACTVS_TAUTO_COUNT>
-1

> <PUBCHEM_COORDINATE_TYPE>
1
5
255

> <PUBCHEM_BONDANNOTATIONS>
11  13  8
11  16  8
16  17  8
16  18  8
17  19  8
18  20  8
19  21  8
2  13  8
2  17  8
20  21  8

$$$$
