90656857
  -OEChem-09292322352D

123125  0     1  0  0  0  0  0999 V2000
    7.1962    1.7527    0.0000 S   0  0  0  0  0  0  0  0  0  0  0  0
    3.7320    7.7527    0.0000 O   0  0  0  0  0  0  0  0  0  0  0  0
    2.8660    6.2527    0.0000 O   0  0  0  0  0  0  0  0  0  0  0  0
    2.8660    4.2527    0.0000 O   0  0  0  0  0  0  0  0  0  0  0  0
    7.4236   -0.4109    0.0000 O   0  0  0  0  0  0  0  0  0  0  0  0
   10.6394    1.0208    0.0000 O   0  0  0  0  0  0  0  0  0  0  0  0
   13.9364   -2.1949    0.0000 O   0  0  0  0  0  0  0  0  0  0  0  0
   16.1511   -5.0401    0.0000 O   0  0  0  0  0  0  0  0  0  0  0  0
   17.9591   -6.9717    0.0000 O   0  0  0  0  0  0  0  0  0  0  0  0
   20.3549   -8.0943    0.0000 O   0  0  0  0  0  0  0  0  0  0  0  0
   22.1629  -10.0259    0.0000 O   0  0  0  0  0  0  0  0  0  0  0  0
   25.1465  -10.3395    0.0000 O   0  0  0  0  0  0  0  0  0  0  0  0
    6.4347   10.2472    0.0000 N   0  0  3  0  0  0  0  0  0  0  0  0
    5.4641    7.7527    0.0000 N   0  0  0  0  0  0  0  0  0  0  0  0
    9.1448    0.0503    0.0000 N   0  0  0  0  0  0  0  0  0  0  0  0
   13.7554   -3.9175    0.0000 N   0  0  0  0  0  0  0  0  0  0  0  0
   24.9654  -12.0621    0.0000 N   0  0  0  0  0  0  0  0  0  0  0  0
    6.3301    9.2527    0.0000 C   0  0  1  0  0  0  0  0  0  0  0  0
    7.2437    8.8460    0.0000 C   0  0  0  0  0  0  0  0  0  0  0  0
    7.9128    9.5891    0.0000 C   0  0  0  0  0  0  0  0  0  0  0  0
    7.4128   10.4552    0.0000 C   0  0  0  0  0  0  0  0  0  0  0  0
    5.4641    8.7527    0.0000 C   0  0  0  0  0  0  0  0  0  0  0  0
    5.6915   10.9164    0.0000 C   0  0  0  0  0  0  0  0  0  0  0  0
    5.8994   11.8945    0.0000 C   0  0  0  0  0  0  0  0  0  0  0  0
    4.5981    7.2527    0.0000 C   0  0  0  0  0  0  0  0  0  0  0  0
    4.5981    6.2527    0.0000 C   0  0  0  0  0  0  0  0  0  0  0  0
    5.1563   12.5637    0.0000 C   0  0  0  0  0  0  0  0  0  0  0  0
    5.4641    5.7527    0.0000 C   0  0  0  0  0  0  0  0  0  0  0  0
    8.0622    1.2527    0.0000 C   0  0  3  0  0  0  0  0  0  0  0  0
    3.7320    5.7527    0.0000 C   0  0  0  0  0  0  0  0  0  0  0  0
    5.4641    4.7527    0.0000 C   0  0  0  0  0  0  0  0  0  0  0  0
    8.9757    1.6595    0.0000 C   0  0  0  0  0  0  0  0  0  0  0  0
    9.5516   -0.8633    0.0000 C   0  0  0  0  0  0  0  0  0  0  0  0
    6.3301    4.2527    0.0000 C   0  0  0  0  0  0  0  0  0  0  0  0
    8.1667    0.2582    0.0000 C   0  0  0  0  0  0  0  0  0  0  0  0
   10.5461   -0.9678    0.0000 C   0  0  0  0  0  0  0  0  0  0  0  0
    9.6448    0.9163    0.0000 C   0  0  0  0  0  0  0  0  0  0  0  0
    6.3301    3.2527    0.0000 C   0  0  0  0  0  0  0  0  0  0  0  0
    3.7320    4.7527    0.0000 C   0  0  0  0  0  0  0  0  0  0  0  0
    7.1962    2.7527    0.0000 C   0  0  0  0  0  0  0  0  0  0  0  0
    4.5981    4.2527    0.0000 C   0  0  0  0  0  0  0  0  0  0  0  0
   10.9528   -1.8813    0.0000 C   0  0  0  0  0  0  0  0  0  0  0  0
   11.9474   -1.9859    0.0000 C   0  0  0  0  0  0  0  0  0  0  0  0
   12.3541   -2.8994    0.0000 C   0  0  0  0  0  0  0  0  0  0  0  0
    2.0000    5.7527    0.0000 C   0  0  0  0  0  0  0  0  0  0  0  0
   13.3486   -3.0039    0.0000 C   0  0  0  0  0  0  0  0  0  0  0  0
    2.8660    3.2527    0.0000 C   0  0  0  0  0  0  0  0  0  0  0  0
   14.7499   -4.0220    0.0000 C   0  0  0  0  0  0  0  0  0  0  0  0
   15.1566   -4.9356    0.0000 C   0  0  0  0  0  0  0  0  0  0  0  0
   16.5579   -5.9536    0.0000 C   0  0  0  0  0  0  0  0  0  0  0  0
   17.5524   -6.0582    0.0000 C   0  0  0  0  0  0  0  0  0  0  0  0
   18.9537   -7.0762    0.0000 C   0  0  0  0  0  0  0  0  0  0  0  0
   19.3604   -7.9898    0.0000 C   0  0  0  0  0  0  0  0  0  0  0  0
   20.7617   -9.0078    0.0000 C   0  0  0  0  0  0  0  0  0  0  0  0
   21.7562   -9.1124    0.0000 C   0  0  0  0  0  0  0  0  0  0  0  0
   23.1574  -10.1304    0.0000 C   0  0  0  0  0  0  0  0  0  0  0  0
   23.5642  -11.0440    0.0000 C   0  0  0  0  0  0  0  0  0  0  0  0
   24.5587  -11.1485    0.0000 C   0  0  0  0  0  0  0  0  0  0  0  0
    5.8102    9.5904    0.0000 H   0  0  0  0  0  0  0  0  0  0  0  0
    6.9337    8.3090    0.0000 H   0  0  0  0  0  0  0  0  0  0  0  0
    7.7453    8.4816    0.0000 H   0  0  0  0  0  0  0  0  0  0  0  0
    8.3277    9.1284    0.0000 H   0  0  0  0  0  0  0  0  0  0  0  0
    8.4144    9.9536    0.0000 H   0  0  0  0  0  0  0  0  0  0  0  0
    7.9792   10.7073    0.0000 H   0  0  0  0  0  0  0  0  0  0  0  0
    7.2212   11.0448    0.0000 H   0  0  0  0  0  0  0  0  0  0  0  0
    5.2520    9.3353    0.0000 H   0  0  0  0  0  0  0  0  0  0  0  0
    4.8535    8.6451    0.0000 H   0  0  0  0  0  0  0  0  0  0  0  0
    5.1167   11.1486    0.0000 H   0  0  0  0  0  0  0  0  0  0  0  0
    5.3630   10.3906    0.0000 H   0  0  0  0  0  0  0  0  0  0  0  0
    6.0010    7.4427    0.0000 H   0  0  0  0  0  0  0  0  0  0  0  0
    6.4891   12.0861    0.0000 H   0  0  0  0  0  0  0  0  0  0  0  0
    5.2852   13.1701    0.0000 H   0  0  0  0  0  0  0  0  0  0  0  0
    4.5666   12.3721    0.0000 H   0  0  0  0  0  0  0  0  0  0  0  0
    6.0010    6.0627    0.0000 H   0  0  0  0  0  0  0  0  0  0  0  0
    8.0946    1.8719    0.0000 H   0  0  0  0  0  0  0  0  0  0  0  0
    9.4773    2.0239    0.0000 H   0  0  0  0  0  0  0  0  0  0  0  0
    8.6657    2.1964    0.0000 H   0  0  0  0  0  0  0  0  0  0  0  0
    8.9500   -1.0132    0.0000 H   0  0  0  0  0  0  0  0  0  0  0  0
    9.5948   -1.4817    0.0000 H   0  0  0  0  0  0  0  0  0  0  0  0
    6.9407    4.1451    0.0000 H   0  0  0  0  0  0  0  0  0  0  0  0
    6.5422    4.8353    0.0000 H   0  0  0  0  0  0  0  0  0  0  0  0
   11.1477   -0.8178    0.0000 H   0  0  0  0  0  0  0  0  0  0  0  0
   10.5029   -0.3493    0.0000 H   0  0  0  0  0  0  0  0  0  0  0  0
    5.7196    3.3604    0.0000 H   0  0  0  0  0  0  0  0  0  0  0  0
    6.1181    2.6701    0.0000 H   0  0  0  0  0  0  0  0  0  0  0  0
    7.8067    2.6451    0.0000 H   0  0  0  0  0  0  0  0  0  0  0  0
    7.4082    3.3353    0.0000 H   0  0  0  0  0  0  0  0  0  0  0  0
   10.3513   -2.0313    0.0000 H   0  0  0  0  0  0  0  0  0  0  0  0
   10.9961   -2.4998    0.0000 H   0  0  0  0  0  0  0  0  0  0  0  0
    4.5981    3.6327    0.0000 H   0  0  0  0  0  0  0  0  0  0  0  0
   12.5490   -1.8359    0.0000 H   0  0  0  0  0  0  0  0  0  0  0  0
   11.9041   -1.3674    0.0000 H   0  0  0  0  0  0  0  0  0  0  0  0
   11.7525   -3.0494    0.0000 H   0  0  0  0  0  0  0  0  0  0  0  0
   12.3974   -3.5179    0.0000 H   0  0  0  0  0  0  0  0  0  0  0  0
    1.6900    6.2897    0.0000 H   0  0  0  0  0  0  0  0  0  0  0  0
    1.4631    5.4427    0.0000 H   0  0  0  0  0  0  0  0  0  0  0  0
    2.3100    5.2158    0.0000 H   0  0  0  0  0  0  0  0  0  0  0  0
    2.2460    3.2527    0.0000 H   0  0  0  0  0  0  0  0  0  0  0  0
    2.8660    2.6327    0.0000 H   0  0  0  0  0  0  0  0  0  0  0  0
    3.4860    3.2527    0.0000 H   0  0  0  0  0  0  0  0  0  0  0  0
   13.3909   -4.4191    0.0000 H   0  0  0  0  0  0  0  0  0  0  0  0
   15.3515   -3.8720    0.0000 H   0  0  0  0  0  0  0  0  0  0  0  0
   14.7066   -3.4035    0.0000 H   0  0  0  0  0  0  0  0  0  0  0  0
   14.5550   -5.0855    0.0000 H   0  0  0  0  0  0  0  0  0  0  0  0
   15.1999   -5.5540    0.0000 H   0  0  0  0  0  0  0  0  0  0  0  0
   15.9563   -6.1036    0.0000 H   0  0  0  0  0  0  0  0  0  0  0  0
   16.6011   -6.5721    0.0000 H   0  0  0  0  0  0  0  0  0  0  0  0
   18.1540   -5.9082    0.0000 H   0  0  0  0  0  0  0  0  0  0  0  0
   17.5092   -5.4397    0.0000 H   0  0  0  0  0  0  0  0  0  0  0  0
   19.5552   -6.9262    0.0000 H   0  0  0  0  0  0  0  0  0  0  0  0
   18.9104   -6.4577    0.0000 H   0  0  0  0  0  0  0  0  0  0  0  0
   18.7588   -8.1398    0.0000 H   0  0  0  0  0  0  0  0  0  0  0  0
   19.4037   -8.6083    0.0000 H   0  0  0  0  0  0  0  0  0  0  0  0
   20.1601   -9.1578    0.0000 H   0  0  0  0  0  0  0  0  0  0  0  0
   20.8049   -9.6263    0.0000 H   0  0  0  0  0  0  0  0  0  0  0  0
   22.3578   -8.9624    0.0000 H   0  0  0  0  0  0  0  0  0  0  0  0
   21.7129   -8.4939    0.0000 H   0  0  0  0  0  0  0  0  0  0  0  0
   23.7590   -9.9805    0.0000 H   0  0  0  0  0  0  0  0  0  0  0  0
   23.1142   -9.5120    0.0000 H   0  0  0  0  0  0  0  0  0  0  0  0
   22.9626  -11.1940    0.0000 H   0  0  0  0  0  0  0  0  0  0  0  0
   23.6074  -11.6625    0.0000 H   0  0  0  0  0  0  0  0  0  0  0  0
   25.5820  -12.1269    0.0000 H   0  0  0  0  0  0  0  0  0  0  0  0
   24.6010  -12.5637    0.0000 H   0  0  0  0  0  0  0  0  0  0  0  0
  1 29  1  0  0  0  0
  1 40  1  0  0  0  0
  2 25  2  0  0  0  0
  3 30  1  0  0  0  0
  3 45  1  0  0  0  0
  4 39  1  0  0  0  0
  4 47  1  0  0  0  0
  5 35  2  0  0  0  0
  6 37  2  0  0  0  0
  7 46  2  0  0  0  0
  8 49  1  0  0  0  0
  8 50  1  0  0  0  0
  9 51  1  0  0  0  0
  9 52  1  0  0  0  0
 10 53  1  0  0  0  0
 10 54  1  0  0  0  0
 11 55  1  0  0  0  0
 11 56  1  0  0  0  0
 12 58  2  0  0  0  0
 13 18  1  0  0  0  0
 13 21  1  0  0  0  0
 13 23  1  0  0  0  0
 14 22  1  0  0  0  0
 14 25  1  0  0  0  0
 14 70  1  0  0  0  0
 15 33  1  0  0  0  0
 15 35  1  0  0  0  0
 15 37  1  0  0  0  0
 16 46  1  0  0  0  0
 16 48  1  0  0  0  0
 16101  1  0  0  0  0
 17 58  1  0  0  0  0
 17122  1  0  0  0  0
 17123  1  0  0  0  0
 18 19  1  0  0  0  0
 18 22  1  1  0  0  0
 18 59  1  0  0  0  0
 19 20  1  0  0  0  0
 19 60  1  0  0  0  0
 19 61  1  0  0  0  0
 20 21  1  0  0  0  0
 20 62  1  0  0  0  0
 20 63  1  0  0  0  0
 21 64  1  0  0  0  0
 21 65  1  0  0  0  0
 22 66  1  0  0  0  0
 22 67  1  0  0  0  0
 23 24  1  0  0  0  0
 23 68  1  0  0  0  0
 23 69  1  0  0  0  0
 24 27  2  0  0  0  0
 24 71  1  0  0  0  0
 25 26  1  0  0  0  0
 26 28  1  0  0  0  0
 26 30  2  0  0  0  0
 27 72  1  0  0  0  0
 27 73  1  0  0  0  0
 28 31  2  0  0  0  0
 28 74  1  0  0  0  0
 29 32  1  0  0  0  0
 29 35  1  0  0  0  0
 29 75  1  0  0  0  0
 30 39  1  0  0  0  0
 31 34  1  0  0  0  0
 31 41  1  0  0  0  0
 32 37  1  0  0  0  0
 32 76  1  0  0  0  0
 32 77  1  0  0  0  0
 33 36  1  0  0  0  0
 33 78  1  0  0  0  0
 33 79  1  0  0  0  0
 34 38  1  0  0  0  0
 34 80  1  0  0  0  0
 34 81  1  0  0  0  0
 36 42  1  0  0  0  0
 36 82  1  0  0  0  0
 36 83  1  0  0  0  0
 38 40  1  0  0  0  0
 38 84  1  0  0  0  0
 38 85  1  0  0  0  0
 39 41  2  0  0  0  0
 40 86  1  0  0  0  0
 40 87  1  0  0  0  0
 41 90  1  0  0  0  0
 42 43  1  0  0  0  0
 42 88  1  0  0  0  0
 42 89  1  0  0  0  0
 43 44  1  0  0  0  0
 43 91  1  0  0  0  0
 43 92  1  0  0  0  0
 44 46  1  0  0  0  0
 44 93  1  0  0  0  0
 44 94  1  0  0  0  0
 45 95  1  0  0  0  0
 45 96  1  0  0  0  0
 45 97  1  0  0  0  0
 47 98  1  0  0  0  0
 47 99  1  0  0  0  0
 47100  1  0  0  0  0
 48 49  1  0  0  0  0
 48102  1  0  0  0  0
 48103  1  0  0  0  0
 49104  1  0  0  0  0
 49105  1  0  0  0  0
 50 51  1  0  0  0  0
 50106  1  0  0  0  0
 50107  1  0  0  0  0
 51108  1  0  0  0  0
 51109  1  0  0  0  0
 52 53  1  0  0  0  0
 52110  1  0  0  0  0
 52111  1  0  0  0  0
 53112  1  0  0  0  0
 53113  1  0  0  0  0
 54 55  1  0  0  0  0
 54114  1  0  0  0  0
 54115  1  0  0  0  0
 55116  1  0  0  0  0
 55117  1  0  0  0  0
 56 57  1  0  0  0  0
 56118  1  0  0  0  0
 56119  1  0  0  0  0
 57 58  1  0  0  0  0
 57120  1  0  0  0  0
 57121  1  0  0  0  0
M  END
> <PUBCHEM_COMPOUND_CID>
90656857

> <PUBCHEM_COMPOUND_CANONICALIZED>
1

> <PUBCHEM_CACTVS_COMPLEXITY>
1250

> <PUBCHEM_CACTVS_HBOND_ACCEPTOR>
13

> <PUBCHEM_CACTVS_HBOND_DONOR>
3

> <PUBCHEM_CACTVS_ROTATABLE_BOND>
33

> <PUBCHEM_CACTVS_SUBSKEYS>
AAADcfB/vABAAAAAAAAAAAAAAAAAAWLAAAAwAAAAAAAAAAABAAAAHgQQAAAADCzl2AayBoPABAiIAiFSEACCCAAkIBAIiIEOjMgPZjaktRuXMWpm9jG6qYe/yPCOIAADAAAIQABAAAYAABCAAAAAAAAAAA==

> <PUBCHEM_IUPAC_OPENEYE_NAME>
N-[[(2S)-1-allylpyrrolidin-2-yl]methyl]-5-[3-[1-[6-[2-[2-[2-[2-(3-amino-3-oxo-propoxy)ethoxy]ethoxy]ethoxy]ethylamino]-6-oxo-hexyl]-2,5-dioxo-pyrrolidin-3-yl]sulfanylpropyl]-2,3-dimethoxy-benzamide

> <PUBCHEM_IUPAC_CAS_NAME>
5-[3-[[1-[6-[2-[2-[2-[2-(3-amino-3-oxopropoxy)ethoxy]ethoxy]ethoxy]ethylamino]-6-oxohexyl]-2,5-dioxo-3-pyrrolidinyl]thio]propyl]-2,3-dimethoxy-N-[[(2S)-1-prop-2-enyl-2-pyrrolidinyl]methyl]benzamide

> <PUBCHEM_IUPAC_NAME_MARKUP>
5-[3-[1-[6-[2-[2-[2-[2-(3-amino-3-oxopropoxy)ethoxy]ethoxy]ethoxy]ethylamino]-6-oxohexyl]-2,5-dioxopyrrolidin-3-yl]sulfanylpropyl]-2,3-dimethoxy-<I>N</I>-[[(2<I>S</I>)-1-prop-2-enylpyrrolidin-2-yl]methyl]benzamide

> <PUBCHEM_IUPAC_NAME>
5-[3-[1-[6-[2-[2-[2-[2-(3-amino-3-oxopropoxy)ethoxy]ethoxy]ethoxy]ethylamino]-6-oxohexyl]-2,5-dioxopyrrolidin-3-yl]sulfanylpropyl]-2,3-dimethoxy-N-[[(2S)-1-prop-2-enylpyrrolidin-2-yl]methyl]benzamide

> <PUBCHEM_IUPAC_SYSTEMATIC_NAME>
5-[3-[1-[6-[2-[2-[2-[2-(3-azanyl-3-oxidanylidene-propoxy)ethoxy]ethoxy]ethoxy]ethylamino]-6-oxidanylidene-hexyl]-2,5-bis(oxidanylidene)pyrrolidin-3-yl]sulfanylpropyl]-2,3-dimethoxy-N-[[(2S)-1-prop-2-enylpyrrolidin-2-yl]methyl]benzamide

> <PUBCHEM_IUPAC_TRADITIONAL_NAME>
N-[[(2S)-1-allylpyrrolidin-2-yl]methyl]-5-[3-[[1-[6-[2-[2-[2-[2-(3-amino-3-keto-propoxy)ethoxy]ethoxy]ethoxy]ethylamino]-6-keto-hexyl]-2,5-diketo-pyrrolidin-3-yl]thio]propyl]-2,3-dimethoxy-benzamide

> <PUBCHEM_IUPAC_INCHI>
InChI=1S/C41H65N5O11S/c1-4-15-45-16-8-11-32(45)30-44-40(50)33-27-31(28-34(52-2)39(33)53-3)10-9-26-58-35-29-38(49)46(41(35)51)17-7-5-6-12-37(48)43-14-19-55-21-23-57-25-24-56-22-20-54-18-13-36(42)47/h4,27-28,32,35H,1,5-26,29-30H2,2-3H3,(H2,42,47)(H,43,48)(H,44,50)/t32-,35?/m0/s1

> <PUBCHEM_IUPAC_INCHIKEY>
YWGNZIZBLUVIEC-GYXLRUHFSA-N

> <PUBCHEM_XLOGP3_AA>
1.3

> <PUBCHEM_EXACT_MASS>
835.44012908

> <PUBCHEM_MOLECULAR_FORMULA>
C41H65N5O11S

> <PUBCHEM_MOLECULAR_WEIGHT>
836.0

> <PUBCHEM_OPENEYE_CAN_SMILES>
COC1=CC(=CC(=C1OC)C(=O)NCC2CCCN2CC=C)CCCSC3CC(=O)N(C3=O)CCCCCC(=O)NCCOCCOCCOCCOCCC(=O)N

> <PUBCHEM_OPENEYE_ISO_SMILES>
COC1=CC(=CC(=C1OC)C(=O)NC[C@@H]2CCCN2CC=C)CCCSC3CC(=O)N(C3=O)CCCCCC(=O)NCCOCCOCCOCCOCCC(=O)N

> <PUBCHEM_CACTVS_TPSA>
223

> <PUBCHEM_MONOISOTOPIC_WEIGHT>
835.44012908

> <PUBCHEM_TOTAL_CHARGE>
0

> <PUBCHEM_HEAVY_ATOM_COUNT>
58

> <PUBCHEM_ATOM_DEF_STEREO_COUNT>
1

> <PUBCHEM_ATOM_UDEF_STEREO_COUNT>
1

> <PUBCHEM_BOND_DEF_STEREO_COUNT>
0

> <PUBCHEM_BOND_UDEF_STEREO_COUNT>
0

> <PUBCHEM_ISOTOPIC_ATOM_COUNT>
0

> <PUBCHEM_COMPONENT_COUNT>
1

> <PUBCHEM_CACTVS_TAUTO_COUNT>
-1

> <PUBCHEM_COORDINATE_TYPE>
1
5
255

> <PUBCHEM_BONDANNOTATIONS>
29  1  3
18  22  5
26  28  8
26  30  8
28  31  8
30  39  8
31  41  8
39  41  8

$$$$
