44330650
  -OEChem-09292322512D

 32 34  0     0  0  0  0  0  0999 V2000
    5.0190   -1.6320    0.0000 N   0  0  0  0  0  0  0  0  0  0  0  0
    5.9972   -1.8087    0.0000 N   0  0  0  0  0  0  0  0  0  0  0  0
    4.3830    1.5433    0.0000 C   0  0  0  0  0  0  0  0  0  0  0  0
    3.7595    0.7615    0.0000 C   0  0  0  0  0  0  0  0  0  0  0  0
    5.3830    1.5433    0.0000 C   0  0  0  0  0  0  0  0  0  0  0  0
    3.9820   -0.2134    0.0000 C   0  0  0  0  0  0  0  0  0  0  0  0
    6.0065    0.7615    0.0000 C   0  0  0  0  0  0  0  0  0  0  0  0
    4.8830   -0.6473    0.0000 C   0  0  0  0  0  0  0  0  0  0  0  0
    5.7840   -0.2134    0.0000 C   0  0  0  0  0  0  0  0  0  0  0  0
    2.7690    1.0838    0.0000 C   0  0  0  0  0  0  0  0  0  0  0  0
    3.2295   -0.9336    0.0000 C   0  0  0  0  0  0  0  0  0  0  0  0
    2.0000    0.3813    0.0000 C   0  0  0  0  0  0  0  0  0  0  0  0
    6.4691   -0.9337    0.0000 C   0  0  0  0  0  0  0  0  0  0  0  0
    2.2318   -0.6343    0.0000 C   0  0  0  0  0  0  0  0  0  0  0  0
    2.5578    2.0613    0.0000 C   0  0  0  0  0  0  0  0  0  0  0  0
    3.4633   -1.9059    0.0000 C   0  0  0  0  0  0  0  0  0  0  0  0
    4.5210    2.1478    0.0000 H   0  0  0  0  0  0  0  0  0  0  0  0
    3.8244    1.8123    0.0000 H   0  0  0  0  0  0  0  0  0  0  0  0
    5.9416    1.8123    0.0000 H   0  0  0  0  0  0  0  0  0  0  0  0
    5.2450    2.1478    0.0000 H   0  0  0  0  0  0  0  0  0  0  0  0
    6.5651    0.4925    0.0000 H   0  0  0  0  0  0  0  0  0  0  0  0
    6.3930    1.2462    0.0000 H   0  0  0  0  0  0  0  0  0  0  0  0
    1.4082    0.5663    0.0000 H   0  0  0  0  0  0  0  0  0  0  0  0
    4.5716   -2.0613    0.0000 H   0  0  0  0  0  0  0  0  0  0  0  0
    7.0836   -0.8516    0.0000 H   0  0  0  0  0  0  0  0  0  0  0  0
    1.7789   -1.0577    0.0000 H   0  0  0  0  0  0  0  0  0  0  0  0
    3.1638    2.1922    0.0000 H   0  0  0  0  0  0  0  0  0  0  0  0
    2.4268    2.6673    0.0000 H   0  0  0  0  0  0  0  0  0  0  0  0
    1.9518    1.9303    0.0000 H   0  0  0  0  0  0  0  0  0  0  0  0
    2.8604   -2.0508    0.0000 H   0  0  0  0  0  0  0  0  0  0  0  0
    3.6082   -2.5087    0.0000 H   0  0  0  0  0  0  0  0  0  0  0  0
    4.0661   -1.7610    0.0000 H   0  0  0  0  0  0  0  0  0  0  0  0
  1  2  1  0  0  0  0
  1  8  1  0  0  0  0
  1 24  1  0  0  0  0
  2 13  2  0  0  0  0
  3  4  1  0  0  0  0
  3  5  1  0  0  0  0
  3 17  1  0  0  0  0
  3 18  1  0  0  0  0
  4  6  1  0  0  0  0
  4 10  2  0  0  0  0
  5  7  1  0  0  0  0
  5 19  1  0  0  0  0
  5 20  1  0  0  0  0
  6  8  1  0  0  0  0
  6 11  2  0  0  0  0
  7  9  1  0  0  0  0
  7 21  1  0  0  0  0
  7 22  1  0  0  0  0
  8  9  2  0  0  0  0
  9 13  1  0  0  0  0
 10 12  1  0  0  0  0
 10 15  1  0  0  0  0
 11 14  1  0  0  0  0
 11 16  1  0  0  0  0
 12 14  2  0  0  0  0
 12 23  1  0  0  0  0
 13 25  1  0  0  0  0
 14 26  1  0  0  0  0
 15 27  1  0  0  0  0
 15 28  1  0  0  0  0
 15 29  1  0  0  0  0
 16 30  1  0  0  0  0
 16 31  1  0  0  0  0
 16 32  1  0  0  0  0
M  END
> <PUBCHEM_COMPOUND_CID>
44330650

> <PUBCHEM_COMPOUND_CANONICALIZED>
1

> <PUBCHEM_CACTVS_COMPLEXITY>
253

> <PUBCHEM_CACTVS_HBOND_ACCEPTOR>
1

> <PUBCHEM_CACTVS_HBOND_DONOR>
1

> <PUBCHEM_CACTVS_ROTATABLE_BOND>
0

> <PUBCHEM_CACTVS_SUBSKEYS>
AAADceBzAAAAAAAAAAAAAAAAAAAAAWAAAAAwAAAABgAAAACxwAAAHAAYAAAADAjBHgQ+gJBjAACiAzRnQACSBAAggAAYuSAgRJgIIKKA0dGApABgiAAIyAcQgMAOwAACAAAQAACAAAQAACAAAAAAAAAAAA==

> <PUBCHEM_IUPAC_OPENEYE_NAME>
11,14-dimethyl-3,4-diazatricyclo[8.4.0.02,6]tetradeca-1(14),2(6),4,10,12-pentaene

> <PUBCHEM_IUPAC_CAS_NAME>
11,14-dimethyl-3,4-diazatricyclo[8.4.0.02,6]tetradeca-1(14),2(6),4,10,12-pentaene

> <PUBCHEM_IUPAC_NAME_MARKUP>
11,14-dimethyl-3,4-diazatricyclo[8.4.0.0<SUP>2,6</SUP>]tetradeca-1(14),2(6),4,10,12-pentaene

> <PUBCHEM_IUPAC_NAME>
11,14-dimethyl-3,4-diazatricyclo[8.4.0.02,6]tetradeca-1(14),2(6),4,10,12-pentaene

> <PUBCHEM_IUPAC_SYSTEMATIC_NAME>
11,14-dimethyl-3,4-diazatricyclo[8.4.0.02,6]tetradeca-1(14),2(6),4,10,12-pentaene

> <PUBCHEM_IUPAC_TRADITIONAL_NAME>
11,14-dimethyl-3,4-diazatricyclo[8.4.0.02,6]tetradeca-1(14),2(6),4,10,12-pentaene

> <PUBCHEM_IUPAC_INCHI>
InChI=1S/C14H16N2/c1-9-6-7-10(2)13-12(9)5-3-4-11-8-15-16-14(11)13/h6-8H,3-5H2,1-2H3,(H,15,16)

> <PUBCHEM_IUPAC_INCHIKEY>
QYEZKUFIWYOLBR-UHFFFAOYSA-N

> <PUBCHEM_XLOGP3_AA>
3.4

> <PUBCHEM_EXACT_MASS>
212.131348519

> <PUBCHEM_MOLECULAR_FORMULA>
C14H16N2

> <PUBCHEM_MOLECULAR_WEIGHT>
212.29

> <PUBCHEM_OPENEYE_CAN_SMILES>
CC1=C2CCCC3=C(C2=C(C=C1)C)NN=C3

> <PUBCHEM_OPENEYE_ISO_SMILES>
CC1=C2CCCC3=C(C2=C(C=C1)C)NN=C3

> <PUBCHEM_CACTVS_TPSA>
28.7

> <PUBCHEM_MONOISOTOPIC_WEIGHT>
212.131348519

> <PUBCHEM_TOTAL_CHARGE>
0

> <PUBCHEM_HEAVY_ATOM_COUNT>
16

> <PUBCHEM_ATOM_DEF_STEREO_COUNT>
0

> <PUBCHEM_ATOM_UDEF_STEREO_COUNT>
0

> <PUBCHEM_BOND_DEF_STEREO_COUNT>
0

> <PUBCHEM_BOND_UDEF_STEREO_COUNT>
0

> <PUBCHEM_ISOTOPIC_ATOM_COUNT>
0

> <PUBCHEM_COMPONENT_COUNT>
1

> <PUBCHEM_CACTVS_TAUTO_COUNT>
-1

> <PUBCHEM_COORDINATE_TYPE>
1
5
255

> <PUBCHEM_BONDANNOTATIONS>
1  2  8
1  8  8
10  12  8
11  14  8
12  14  8
2  13  8
4  10  8
4  6  8
6  11  8
8  9  8
9  13  8

$$$$
