89287174
  -OEChem-09292322442D

 49 52  0     1  0  0  0  0  0999 V2000
    2.0000   -1.0000    0.0000 Cl  0  0  0  0  0  0  0  0  0  0  0  0
    5.8550   -1.7552    0.0000 N   0  0  3  0  0  0  0  0  0  0  0  0
    6.4763   -3.6563    0.0000 N   0  0  0  0  0  0  0  0  0  0  0  0
    5.5443   -0.8047    0.0000 C   0  0  2  0  0  0  0  0  0  0  0  0
    6.1279    0.0000    0.0000 C   0  0  0  0  0  0  0  0  0  0  0  0
    5.5443    0.8047    0.0000 C   0  0  2  0  0  0  0  0  0  0  0  0
    7.1441   -2.9120    0.0000 C   0  0  0  0  0  0  0  0  0  0  0  0
    6.8335   -1.9615    0.0000 C   0  0  0  0  0  0  0  0  0  0  0  0
    4.5981   -0.5000    0.0000 C   0  0  0  0  0  0  0  0  0  0  0  0
    5.1871   -2.4996    0.0000 C   0  0  0  0  0  0  0  0  0  0  0  0
    4.5981    0.5000    0.0000 C   0  0  0  0  0  0  0  0  0  0  0  0
    5.4978   -3.4501    0.0000 C   0  0  0  0  0  0  0  0  0  0  0  0
    5.8550    1.7552    0.0000 C   0  0  0  0  0  0  0  0  0  0  0  0
    7.8884   -3.5798    0.0000 C   0  0  0  0  0  0  0  0  0  0  0  0
    8.0946   -2.6013    0.0000 C   0  0  0  0  0  0  0  0  0  0  0  0
    3.7320   -1.0000    0.0000 C   0  0  0  0  0  0  0  0  0  0  0  0
    3.7320    1.0000    0.0000 C   0  0  0  0  0  0  0  0  0  0  0  0
    2.8660   -0.5000    0.0000 C   0  0  0  0  0  0  0  0  0  0  0  0
    2.8660    0.5000    0.0000 C   0  0  0  0  0  0  0  0  0  0  0  0
    5.1871    2.4996    0.0000 C   0  0  0  0  0  0  0  0  0  0  0  0
    6.8335    1.9615    0.0000 C   0  0  0  0  0  0  0  0  0  0  0  0
    5.4978    3.4501    0.0000 C   0  0  0  0  0  0  0  0  0  0  0  0
    7.1441    2.9120    0.0000 C   0  0  0  0  0  0  0  0  0  0  0  0
    6.4763    3.6563    0.0000 C   0  0  0  0  0  0  0  0  0  0  0  0
    6.1568   -0.9009    0.0000 H   0  0  0  0  0  0  0  0  0  0  0  0
    6.5888   -0.4147    0.0000 H   0  0  0  0  0  0  0  0  0  0  0  0
    6.5888    0.4147    0.0000 H   0  0  0  0  0  0  0  0  0  0  0  0
    6.1568    0.9009    0.0000 H   0  0  0  0  0  0  0  0  0  0  0  0
    7.4473   -1.8741    0.0000 H   0  0  0  0  0  0  0  0  0  0  0  0
    6.8540   -1.3418    0.0000 H   0  0  0  0  0  0  0  0  0  0  0  0
    4.8046   -2.0116    0.0000 H   0  0  0  0  0  0  0  0  0  0  0  0
    4.6402   -2.7916    0.0000 H   0  0  0  0  0  0  0  0  0  0  0  0
    4.8840   -3.5374    0.0000 H   0  0  0  0  0  0  0  0  0  0  0  0
    5.4772   -4.0697    0.0000 H   0  0  0  0  0  0  0  0  0  0  0  0
    6.6689   -4.2456    0.0000 H   0  0  0  0  0  0  0  0  0  0  0  0
    7.4744   -4.0413    0.0000 H   0  0  0  0  0  0  0  0  0  0  0  0
    8.3499   -3.9939    0.0000 H   0  0  0  0  0  0  0  0  0  0  0  0
    8.3025   -3.1184    0.0000 H   0  0  0  0  0  0  0  0  0  0  0  0
    8.2873   -3.1907    0.0000 H   0  0  0  0  0  0  0  0  0  0  0  0
    8.6840   -2.4087    0.0000 H   0  0  0  0  0  0  0  0  0  0  0  0
    7.9020   -2.0120    0.0000 H   0  0  0  0  0  0  0  0  0  0  0  0
    3.7320   -1.6200    0.0000 H   0  0  0  0  0  0  0  0  0  0  0  0
    3.7320    1.6200    0.0000 H   0  0  0  0  0  0  0  0  0  0  0  0
    2.3291    0.8100    0.0000 H   0  0  0  0  0  0  0  0  0  0  0  0
    4.5804    2.3717    0.0000 H   1  0  0  0  0  0  0  0  0  0  0  0
    7.2475    1.5000    0.0000 H   1  0  0  0  0  0  0  0  0  0  0  0
    5.0837    3.9115    0.0000 H   1  0  0  0  0  0  0  0  0  0  0  0
    7.7508    3.0398    0.0000 H   1  0  0  0  0  0  0  0  0  0  0  0
    6.6689    4.2456    0.0000 H   1  0  0  0  0  0  0  0  0  0  0  0
  1 18  1  0  0  0  0
  4  2  1  1  0  0  0
  2  8  1  0  0  0  0
  2 10  1  0  0  0  0
  3  7  1  0  0  0  0
  3 12  1  0  0  0  0
  3 35  1  0  0  0  0
  4  5  1  0  0  0  0
  4  9  1  0  0  0  0
  4 25  1  0  0  0  0
  5  6  1  0  0  0  0
  5 26  1  0  0  0  0
  5 27  1  0  0  0  0
  6 11  1  0  0  0  0
  6 13  1  6  0  0  0
  6 28  1  0  0  0  0
  7  8  1  0  0  0  0
  7 14  1  0  0  0  0
  7 15  1  0  0  0  0
  8 29  1  0  0  0  0
  8 30  1  0  0  0  0
  9 11  2  0  0  0  0
  9 16  1  0  0  0  0
 10 12  1  0  0  0  0
 10 31  1  0  0  0  0
 10 32  1  0  0  0  0
 11 17  1  0  0  0  0
 12 33  1  0  0  0  0
 12 34  1  0  0  0  0
 13 20  2  0  0  0  0
 13 21  1  0  0  0  0
 14 36  1  0  0  0  0
 14 37  1  0  0  0  0
 14 38  1  0  0  0  0
 15 39  1  0  0  0  0
 15 40  1  0  0  0  0
 15 41  1  0  0  0  0
 16 18  2  0  0  0  0
 16 42  1  0  0  0  0
 17 19  2  0  0  0  0
 17 43  1  0  0  0  0
 18 19  1  0  0  0  0
 19 44  1  0  0  0  0
 20 22  1  0  0  0  0
 20 45  1  0  0  0  0
 21 23  2  0  0  0  0
 21 46  1  0  0  0  0
 22 24  2  0  0  0  0
 22 47  1  0  0  0  0
 23 24  1  0  0  0  0
 23 48  1  0  0  0  0
 24 49  1  0  0  0  0
M  ISO  5  45   2  46   2  47   2  48   2  49   2
M  END
> <PUBCHEM_COMPOUND_CID>
89287174

> <PUBCHEM_COMPOUND_CANONICALIZED>
1

> <PUBCHEM_CACTVS_COMPLEXITY>
432

> <PUBCHEM_CACTVS_HBOND_ACCEPTOR>
2

> <PUBCHEM_CACTVS_HBOND_DONOR>
1

> <PUBCHEM_CACTVS_ROTATABLE_BOND>
2

> <PUBCHEM_CACTVS_SUBSKEYS>
AAADceB7AAAEAAAAAAAAAAAAAAAAAYAAAAA8YIAAAAAAAGABQAAAHAIQAAAADarBGCQyAIPAAACAAiBCAACCAAAgBQAIiIAIBogIYCKBkxGUIAhgkACIiAcQgMAOhAAAIAAQAAAIAABAACAAASAACQAAAA==

> <PUBCHEM_IUPAC_OPENEYE_NAME>
1-[(1R,3S)-6-chloro-3-(2,3,4,5,6-pentadeuteriophenyl)indan-1-yl]-3,3-dimethyl-piperazine

> <PUBCHEM_IUPAC_CAS_NAME>
1-[(1R,3S)-6-chloro-3-(2,3,4,5,6-pentadeuteriophenyl)-2,3-dihydro-1H-inden-1-yl]-3,3-dimethylpiperazine

> <PUBCHEM_IUPAC_NAME_MARKUP>
1-[(1<I>R</I>,3<I>S</I>)-6-chloro-3-(2,3,4,5,6-pentadeuteriophenyl)-2,3-dihydro-1<I>H</I>-inden-1-yl]-3,3-dimethylpiperazine

> <PUBCHEM_IUPAC_NAME>
1-[(1R,3S)-6-chloro-3-(2,3,4,5,6-pentadeuteriophenyl)-2,3-dihydro-1H-inden-1-yl]-3,3-dimethylpiperazine

> <PUBCHEM_IUPAC_SYSTEMATIC_NAME>
1-[(1R,3S)-6-chloranyl-3-(2,3,4,5,6-pentadeuteriophenyl)-2,3-dihydro-1H-inden-1-yl]-3,3-dimethyl-piperazine

> <PUBCHEM_IUPAC_TRADITIONAL_NAME>
1-[(1R,3S)-6-chloro-3-(2,3,4,5,6-pentadeuteriophenyl)indan-1-yl]-3,3-dimethyl-piperazine

> <PUBCHEM_IUPAC_INCHI>
InChI=1S/C21H25ClN2/c1-21(2)14-24(11-10-23-21)20-13-18(15-6-4-3-5-7-15)17-9-8-16(22)12-19(17)20/h3-9,12,18,20,23H,10-11,13-14H2,1-2H3/t18-,20+/m0/s1/i3D,4D,5D,6D,7D

> <PUBCHEM_IUPAC_INCHIKEY>
FBCSWIXKXHSYBN-LSQWYULJSA-N

> <PUBCHEM_XLOGP3_AA>
4.2

> <PUBCHEM_EXACT_MASS>
345.2020102

> <PUBCHEM_MOLECULAR_FORMULA>
C21H25ClN2

> <PUBCHEM_MOLECULAR_WEIGHT>
345.9

> <PUBCHEM_OPENEYE_CAN_SMILES>
CC1(CN(CCN1)C2CC(C3=C2C=C(C=C3)Cl)C4=CC=CC=C4)C

> <PUBCHEM_OPENEYE_ISO_SMILES>
[2H]C1=C(C(=C(C(=C1[2H])[2H])[C@@H]2C[C@H](C3=C2C=CC(=C3)Cl)N4CCNC(C4)(C)C)[2H])[2H]

> <PUBCHEM_CACTVS_TPSA>
15.3

> <PUBCHEM_MONOISOTOPIC_WEIGHT>
345.2020102

> <PUBCHEM_TOTAL_CHARGE>
0

> <PUBCHEM_HEAVY_ATOM_COUNT>
24

> <PUBCHEM_ATOM_DEF_STEREO_COUNT>
2

> <PUBCHEM_ATOM_UDEF_STEREO_COUNT>
0

> <PUBCHEM_BOND_DEF_STEREO_COUNT>
0

> <PUBCHEM_BOND_UDEF_STEREO_COUNT>
0

> <PUBCHEM_ISOTOPIC_ATOM_COUNT>
5

> <PUBCHEM_COMPONENT_COUNT>
1

> <PUBCHEM_CACTVS_TAUTO_COUNT>
-1

> <PUBCHEM_COORDINATE_TYPE>
1
5
255

> <PUBCHEM_BONDANNOTATIONS>
11  17  8
13  20  8
13  21  8
16  18  8
17  19  8
18  19  8
4  2  5
20  22  8
21  23  8
22  24  8
23  24  8
6  13  6
9  11  8
9  16  8

$$$$
