11646648
  -OEChem-09292322262D

 53 56  0     0  0  0  0  0  0999 V2000
   12.6337    3.2197    0.0000 S   0  0  0  0  0  0  0  0  0  0  0  0
   10.6070    0.2376    0.0000 O   0  0  0  0  0  0  0  0  0  0  0  0
    2.8660   -0.8256    0.0000 O   0  0  0  0  0  0  0  0  0  0  0  0
    7.6995    0.1359    0.0000 N   0  0  0  0  0  0  0  0  0  0  0  0
    6.4103   -2.6304    0.0000 N   0  0  0  0  0  0  0  0  0  0  0  0
    9.6565    0.5483    0.0000 C   0  0  0  0  0  0  0  0  0  0  0  0
    8.9887    1.2926    0.0000 C   0  0  0  0  0  0  0  0  0  0  0  0
    9.3458   -0.4022    0.0000 C   0  0  0  0  0  0  0  0  0  0  0  0
    8.0102    1.0864    0.0000 C   0  0  0  0  0  0  0  0  0  0  0  0
    8.3673   -0.6084    0.0000 C   0  0  0  0  0  0  0  0  0  0  0  0
   10.4008    1.2161    0.0000 C   0  0  0  0  0  0  0  0  0  0  0  0
    6.7210   -0.0704    0.0000 C   0  0  0  0  0  0  0  0  0  0  0  0
    6.4103   -1.0209    0.0000 C   0  0  0  0  0  0  0  0  0  0  0  0
   10.1946    2.1946    0.0000 C   0  0  0  0  0  0  0  0  0  0  0  0
   11.3513    0.9055    0.0000 C   0  0  0  0  0  0  0  0  0  0  0  0
    5.4641   -1.3256    0.0000 C   0  0  0  0  0  0  0  0  0  0  0  0
    6.9939   -1.8256    0.0000 C   0  0  0  0  0  0  0  0  0  0  0  0
    5.4641   -2.3256    0.0000 C   0  0  0  0  0  0  0  0  0  0  0  0
   10.9389    2.8625    0.0000 C   0  0  0  0  0  0  0  0  0  0  0  0
   12.0956    1.5733    0.0000 C   0  0  0  0  0  0  0  0  0  0  0  0
   11.8894    2.5518    0.0000 C   0  0  0  0  0  0  0  0  0  0  0  0
    4.5981   -0.8256    0.0000 C   0  0  0  0  0  0  0  0  0  0  0  0
    4.5981   -2.8256    0.0000 C   0  0  0  0  0  0  0  0  0  0  0  0
    3.7320   -1.3256    0.0000 C   0  0  0  0  0  0  0  0  0  0  0  0
    3.7320   -2.3256    0.0000 C   0  0  0  0  0  0  0  0  0  0  0  0
   13.5842    2.9090    0.0000 C   0  0  0  0  0  0  0  0  0  0  0  0
    2.0000   -1.3256    0.0000 C   0  0  0  0  0  0  0  0  0  0  0  0
    9.5150    1.6202    0.0000 H   0  0  0  0  0  0  0  0  0  0  0  0
    8.7574    1.8678    0.0000 H   0  0  0  0  0  0  0  0  0  0  0  0
    9.3664   -1.0219    0.0000 H   0  0  0  0  0  0  0  0  0  0  0  0
    9.9597   -0.4896    0.0000 H   0  0  0  0  0  0  0  0  0  0  0  0
    7.9896    1.7060    0.0000 H   0  0  0  0  0  0  0  0  0  0  0  0
    7.3963    1.1737    0.0000 H   0  0  0  0  0  0  0  0  0  0  0  0
    7.8410   -0.9361    0.0000 H   0  0  0  0  0  0  0  0  0  0  0  0
    8.5986   -1.1837    0.0000 H   0  0  0  0  0  0  0  0  0  0  0  0
    6.7004    0.5493    0.0000 H   0  0  0  0  0  0  0  0  0  0  0  0
    6.1072    0.0170    0.0000 H   0  0  0  0  0  0  0  0  0  0  0  0
   10.7349   -0.3690    0.0000 H   0  0  0  0  0  0  0  0  0  0  0  0
    9.6053    2.3872    0.0000 H   0  0  0  0  0  0  0  0  0  0  0  0
   11.4792    0.2988    0.0000 H   0  0  0  0  0  0  0  0  0  0  0  0
    7.6139   -1.8256    0.0000 H   0  0  0  0  0  0  0  0  0  0  0  0
   10.8110    3.4692    0.0000 H   0  0  0  0  0  0  0  0  0  0  0  0
   12.6849    1.3807    0.0000 H   0  0  0  0  0  0  0  0  0  0  0  0
    6.6029   -3.2197    0.0000 H   0  0  0  0  0  0  0  0  0  0  0  0
    4.5981   -0.2056    0.0000 H   0  0  0  0  0  0  0  0  0  0  0  0
    4.5981   -3.4456    0.0000 H   0  0  0  0  0  0  0  0  0  0  0  0
    3.1951   -2.6356    0.0000 H   0  0  0  0  0  0  0  0  0  0  0  0
   13.3916    2.3197    0.0000 H   0  0  0  0  0  0  0  0  0  0  0  0
   14.1736    2.7164    0.0000 H   0  0  0  0  0  0  0  0  0  0  0  0
   13.7768    3.4983    0.0000 H   0  0  0  0  0  0  0  0  0  0  0  0
    1.6900   -0.7887    0.0000 H   0  0  0  0  0  0  0  0  0  0  0  0
    1.4631   -1.6356    0.0000 H   0  0  0  0  0  0  0  0  0  0  0  0
    2.3100   -1.8626    0.0000 H   0  0  0  0  0  0  0  0  0  0  0  0
  1 21  1  0  0  0  0
  1 26  1  0  0  0  0
  2  6  1  0  0  0  0
  2 38  1  0  0  0  0
  3 24  1  0  0  0  0
  3 27  1  0  0  0  0
  4  9  1  0  0  0  0
  4 10  1  0  0  0  0
  4 12  1  0  0  0  0
  5 17  1  0  0  0  0
  5 18  1  0  0  0  0
  5 44  1  0  0  0  0
  6  7  1  0  0  0  0
  6  8  1  0  0  0  0
  6 11  1  0  0  0  0
  7  9  1  0  0  0  0
  7 28  1  0  0  0  0
  7 29  1  0  0  0  0
  8 10  1  0  0  0  0
  8 30  1  0  0  0  0
  8 31  1  0  0  0  0
  9 32  1  0  0  0  0
  9 33  1  0  0  0  0
 10 34  1  0  0  0  0
 10 35  1  0  0  0  0
 11 14  2  0  0  0  0
 11 15  1  0  0  0  0
 12 13  1  0  0  0  0
 12 36  1  0  0  0  0
 12 37  1  0  0  0  0
 13 16  1  0  0  0  0
 13 17  2  0  0  0  0
 14 19  1  0  0  0  0
 14 39  1  0  0  0  0
 15 20  2  0  0  0  0
 15 40  1  0  0  0  0
 16 18  2  0  0  0  0
 16 22  1  0  0  0  0
 17 41  1  0  0  0  0
 18 23  1  0  0  0  0
 19 21  2  0  0  0  0
 19 42  1  0  0  0  0
 20 21  1  0  0  0  0
 20 43  1  0  0  0  0
 22 24  2  0  0  0  0
 22 45  1  0  0  0  0
 23 25  2  0  0  0  0
 23 46  1  0  0  0  0
 24 25  1  0  0  0  0
 25 47  1  0  0  0  0
 26 48  1  0  0  0  0
 26 49  1  0  0  0  0
 26 50  1  0  0  0  0
 27 51  1  0  0  0  0
 27 52  1  0  0  0  0
 27 53  1  0  0  0  0
M  END
> <PUBCHEM_COMPOUND_CID>
11646648

> <PUBCHEM_COMPOUND_CANONICALIZED>
1

> <PUBCHEM_CACTVS_COMPLEXITY>
475

> <PUBCHEM_CACTVS_HBOND_ACCEPTOR>
4

> <PUBCHEM_CACTVS_HBOND_DONOR>
2

> <PUBCHEM_CACTVS_ROTATABLE_BOND>
5

> <PUBCHEM_CACTVS_SUBSKEYS>
AAADceB7MABAAAAAAAAAAAAAAAAAAWAAAAA8YIAAAAAAAFgB9AAAHgQQCAAADEzB3ga+x/PJlgigAzRnRACCiCAxKjAI2bg+bJgMJuLk8ZuEcChm0BHI+Aew0PIOkEABAAACAAAggAIAAAQAAAAAAAAAAA==

> <PUBCHEM_IUPAC_OPENEYE_NAME>
1-[(5-methoxy-1H-indol-3-yl)methyl]-4-(4-methylsulfanylphenyl)piperidin-4-ol

> <PUBCHEM_IUPAC_CAS_NAME>
1-[(5-methoxy-1H-indol-3-yl)methyl]-4-[4-(methylthio)phenyl]-4-piperidinol

> <PUBCHEM_IUPAC_NAME_MARKUP>
1-[(5-methoxy-1<I>H</I>-indol-3-yl)methyl]-4-(4-methylsulfanylphenyl)piperidin-4-ol

> <PUBCHEM_IUPAC_NAME>
1-[(5-methoxy-1H-indol-3-yl)methyl]-4-(4-methylsulfanylphenyl)piperidin-4-ol

> <PUBCHEM_IUPAC_SYSTEMATIC_NAME>
1-[(5-methoxy-1H-indol-3-yl)methyl]-4-(4-methylsulfanylphenyl)piperidin-4-ol

> <PUBCHEM_IUPAC_TRADITIONAL_NAME>
1-[(5-methoxy-1H-indol-3-yl)methyl]-4-[4-(methylthio)phenyl]piperidin-4-ol

> <PUBCHEM_IUPAC_INCHI>
InChI=1S/C22H26N2O2S/c1-26-18-5-8-21-20(13-18)16(14-23-21)15-24-11-9-22(25,10-12-24)17-3-6-19(27-2)7-4-17/h3-8,13-14,23,25H,9-12,15H2,1-2H3

> <PUBCHEM_IUPAC_INCHIKEY>
LIFHVPXIKLLTMH-UHFFFAOYSA-N

> <PUBCHEM_XLOGP3_AA>
3.5

> <PUBCHEM_EXACT_MASS>
382.17149925

> <PUBCHEM_MOLECULAR_FORMULA>
C22H26N2O2S

> <PUBCHEM_MOLECULAR_WEIGHT>
382.5

> <PUBCHEM_OPENEYE_CAN_SMILES>
COC1=CC2=C(C=C1)NC=C2CN3CCC(CC3)(C4=CC=C(C=C4)SC)O

> <PUBCHEM_OPENEYE_ISO_SMILES>
COC1=CC2=C(C=C1)NC=C2CN3CCC(CC3)(C4=CC=C(C=C4)SC)O

> <PUBCHEM_CACTVS_TPSA>
73.8

> <PUBCHEM_MONOISOTOPIC_WEIGHT>
382.17149925

> <PUBCHEM_TOTAL_CHARGE>
0

> <PUBCHEM_HEAVY_ATOM_COUNT>
27

> <PUBCHEM_ATOM_DEF_STEREO_COUNT>
0

> <PUBCHEM_ATOM_UDEF_STEREO_COUNT>
0

> <PUBCHEM_BOND_DEF_STEREO_COUNT>
0

> <PUBCHEM_BOND_UDEF_STEREO_COUNT>
0

> <PUBCHEM_ISOTOPIC_ATOM_COUNT>
0

> <PUBCHEM_COMPONENT_COUNT>
1

> <PUBCHEM_CACTVS_TAUTO_COUNT>
-1

> <PUBCHEM_COORDINATE_TYPE>
1
5
255

> <PUBCHEM_BONDANNOTATIONS>
11  14  8
11  15  8
13  16  8
13  17  8
14  19  8
15  20  8
16  18  8
16  22  8
18  23  8
19  21  8
20  21  8
22  24  8
23  25  8
24  25  8
5  17  8
5  18  8

$$$$
