12898419
  -OEChem-09292322132D

 39 40  0     1  0  0  0  0  0999 V2000
    4.5981   -0.0530    0.0000 N   0  0  0  0  0  0  0  0  0  0  0  0
    8.1424   -1.8577    0.0000 N   0  0  0  0  0  0  0  0  0  0  0  0
    8.7260   -1.0530    0.0000 N   0  0  0  0  0  0  0  0  0  0  0  0
    5.4641   -0.5530    0.0000 C   0  0  3  0  0  0  0  0  0  0  0  0
    5.4641   -1.5530    0.0000 C   0  0  0  0  0  0  0  0  0  0  0  0
    6.3301   -0.0530    0.0000 C   0  0  0  0  0  0  0  0  0  0  0  0
    6.3301   -2.0530    0.0000 C   0  0  0  0  0  0  0  0  0  0  0  0
    7.1962   -0.5530    0.0000 C   0  0  0  0  0  0  0  0  0  0  0  0
    7.1962   -1.5530    0.0000 C   0  0  0  0  0  0  0  0  0  0  0  0
    3.7320   -0.5530    0.0000 C   0  0  0  0  0  0  0  0  0  0  0  0
    4.5981    0.9470    0.0000 C   0  0  0  0  0  0  0  0  0  0  0  0
    2.8660   -0.0530    0.0000 C   0  0  0  0  0  0  0  0  0  0  0  0
    3.7320    1.4470    0.0000 C   0  0  0  0  0  0  0  0  0  0  0  0
    8.1424   -0.2482    0.0000 C   0  0  0  0  0  0  0  0  0  0  0  0
    2.0000   -0.5530    0.0000 C   0  0  0  0  0  0  0  0  0  0  0  0
    3.7320    2.4470    0.0000 C   0  0  0  0  0  0  0  0  0  0  0  0
    5.4641    0.0670    0.0000 H   0  0  0  0  0  0  0  0  0  0  0  0
    4.8535   -1.4453    0.0000 H   0  0  0  0  0  0  0  0  0  0  0  0
    5.2520   -2.1356    0.0000 H   0  0  0  0  0  0  0  0  0  0  0  0
    6.7287    0.4220    0.0000 H   0  0  0  0  0  0  0  0  0  0  0  0
    5.9316    0.4220    0.0000 H   0  0  0  0  0  0  0  0  0  0  0  0
    5.9316   -2.5279    0.0000 H   0  0  0  0  0  0  0  0  0  0  0  0
    6.7287   -2.5279    0.0000 H   0  0  0  0  0  0  0  0  0  0  0  0
    3.3335   -1.0279    0.0000 H   0  0  0  0  0  0  0  0  0  0  0  0
    4.1306   -1.0279    0.0000 H   0  0  0  0  0  0  0  0  0  0  0  0
    5.2087    0.8394    0.0000 H   0  0  0  0  0  0  0  0  0  0  0  0
    4.8101    1.5296    0.0000 H   0  0  0  0  0  0  0  0  0  0  0  0
    3.2646    0.4220    0.0000 H   0  0  0  0  0  0  0  0  0  0  0  0
    2.4675    0.4220    0.0000 H   0  0  0  0  0  0  0  0  0  0  0  0
    3.1215    1.5547    0.0000 H   0  0  0  0  0  0  0  0  0  0  0  0
    3.5200    0.8644    0.0000 H   0  0  0  0  0  0  0  0  0  0  0  0
    8.3350    0.3411    0.0000 H   0  0  0  0  0  0  0  0  0  0  0  0
    8.3350   -2.4470    0.0000 H   0  0  0  0  0  0  0  0  0  0  0  0
    1.6900   -0.0160    0.0000 H   0  0  0  0  0  0  0  0  0  0  0  0
    1.4631   -0.8630    0.0000 H   0  0  0  0  0  0  0  0  0  0  0  0
    2.3100   -1.0899    0.0000 H   0  0  0  0  0  0  0  0  0  0  0  0
    4.3520    2.4470    0.0000 H   0  0  0  0  0  0  0  0  0  0  0  0
    3.7320    3.0670    0.0000 H   0  0  0  0  0  0  0  0  0  0  0  0
    3.1120    2.4470    0.0000 H   0  0  0  0  0  0  0  0  0  0  0  0
  1  4  1  0  0  0  0
  1 10  1  0  0  0  0
  1 11  1  0  0  0  0
  2  3  1  0  0  0  0
  2  9  1  0  0  0  0
  2 33  1  0  0  0  0
  3 14  2  0  0  0  0
  4  5  1  0  0  0  0
  4  6  1  0  0  0  0
  4 17  1  0  0  0  0
  5  7  1  0  0  0  0
  5 18  1  0  0  0  0
  5 19  1  0  0  0  0
  6  8  1  0  0  0  0
  6 20  1  0  0  0  0
  6 21  1  0  0  0  0
  7  9  1  0  0  0  0
  7 22  1  0  0  0  0
  7 23  1  0  0  0  0
  8  9  2  0  0  0  0
  8 14  1  0  0  0  0
 10 12  1  0  0  0  0
 10 24  1  0  0  0  0
 10 25  1  0  0  0  0
 11 13  1  0  0  0  0
 11 26  1  0  0  0  0
 11 27  1  0  0  0  0
 12 15  1  0  0  0  0
 12 28  1  0  0  0  0
 12 29  1  0  0  0  0
 13 16  1  0  0  0  0
 13 30  1  0  0  0  0
 13 31  1  0  0  0  0
 14 32  1  0  0  0  0
 15 34  1  0  0  0  0
 15 35  1  0  0  0  0
 15 36  1  0  0  0  0
 16 37  1  0  0  0  0
 16 38  1  0  0  0  0
 16 39  1  0  0  0  0
M  END
> <PUBCHEM_COMPOUND_CID>
12898419

> <PUBCHEM_COMPOUND_CANONICALIZED>
1

> <PUBCHEM_CACTVS_COMPLEXITY>
201

> <PUBCHEM_CACTVS_HBOND_ACCEPTOR>
2

> <PUBCHEM_CACTVS_HBOND_DONOR>
1

> <PUBCHEM_CACTVS_ROTATABLE_BOND>
5

> <PUBCHEM_CACTVS_SUBSKEYS>
AAADceBzAAAAAAAAAAAAAAAAAAAAAWAAAAAwAAAAAAAAAFgBgAAAHAAYAAAADCjBHgQugJNjAACiAxRnQACQBAAggAAQOSA4RBgAIIIA0cGEhABgmACISAMQgAAOAAAAAAAAAAAAAQCAAAQAAAAAAAAAAA==

> <PUBCHEM_IUPAC_OPENEYE_NAME>
N,N-dipropyl-4,5,6,7-tetrahydro-1H-indazol-5-amine

> <PUBCHEM_IUPAC_CAS_NAME>
N,N-dipropyl-4,5,6,7-tetrahydro-1H-indazol-5-amine

> <PUBCHEM_IUPAC_NAME_MARKUP>
<I>N</I>,<I>N</I>-dipropyl-4,5,6,7-tetrahydro-1<I>H</I>-indazol-5-amine

> <PUBCHEM_IUPAC_NAME>
N,N-dipropyl-4,5,6,7-tetrahydro-1H-indazol-5-amine

> <PUBCHEM_IUPAC_SYSTEMATIC_NAME>
N,N-dipropyl-4,5,6,7-tetrahydro-1H-indazol-5-amine

> <PUBCHEM_IUPAC_TRADITIONAL_NAME>
dipropyl(4,5,6,7-tetrahydro-1H-indazol-5-yl)amine

> <PUBCHEM_IUPAC_INCHI>
InChI=1S/C13H23N3/c1-3-7-16(8-4-2)12-5-6-13-11(9-12)10-14-15-13/h10,12H,3-9H2,1-2H3,(H,14,15)

> <PUBCHEM_IUPAC_INCHIKEY>
GLKCCTUKWPNZKT-UHFFFAOYSA-N

> <PUBCHEM_XLOGP3_AA>
2.8

> <PUBCHEM_EXACT_MASS>
221.189197746

> <PUBCHEM_MOLECULAR_FORMULA>
C13H23N3

> <PUBCHEM_MOLECULAR_WEIGHT>
221.34

> <PUBCHEM_OPENEYE_CAN_SMILES>
CCCN(CCC)C1CCC2=C(C1)C=NN2

> <PUBCHEM_OPENEYE_ISO_SMILES>
CCCN(CCC)C1CCC2=C(C1)C=NN2

> <PUBCHEM_CACTVS_TPSA>
31.9

> <PUBCHEM_MONOISOTOPIC_WEIGHT>
221.189197746

> <PUBCHEM_TOTAL_CHARGE>
0

> <PUBCHEM_HEAVY_ATOM_COUNT>
16

> <PUBCHEM_ATOM_DEF_STEREO_COUNT>
0

> <PUBCHEM_ATOM_UDEF_STEREO_COUNT>
1

> <PUBCHEM_BOND_DEF_STEREO_COUNT>
0

> <PUBCHEM_BOND_UDEF_STEREO_COUNT>
0

> <PUBCHEM_ISOTOPIC_ATOM_COUNT>
0

> <PUBCHEM_COMPONENT_COUNT>
1

> <PUBCHEM_CACTVS_TAUTO_COUNT>
-1

> <PUBCHEM_COORDINATE_TYPE>
1
5
255

> <PUBCHEM_BONDANNOTATIONS>
4  1  3
2  3  8
2  9  8
3  14  8
8  14  8
8  9  8

$$$$
