44439391
  -OEChem-09292322262D

 45 49  0     1  0  0  0  0  0999 V2000
    2.9789   -2.8590    0.0000 O   0  0  0  0  0  0  0  0  0  0  0  0
   10.7118    2.8590    0.0000 O   0  0  0  0  0  0  0  0  0  0  0  0
   11.8025    1.6754    0.0000 O   0  0  0  0  0  0  0  0  0  0  0  0
    8.3780   -1.1226    0.0000 N   0  0  0  0  0  0  0  0  0  0  0  0
    5.8507    0.0016    0.0000 N   0  0  0  0  0  0  0  0  0  0  0  0
    7.6751   -0.3539    0.0000 C   0  0  3  0  0  0  0  0  0  0  0  0
    6.6597   -0.5862    0.0000 C   0  0  0  0  0  0  0  0  0  0  0  0
    6.3507   -1.5372    0.0000 C   0  0  0  0  0  0  0  0  0  0  0  0
    7.0356   -2.3220    0.0000 C   0  0  0  0  0  0  0  0  0  0  0  0
    8.0562   -2.1132    0.0000 C   0  0  0  0  0  0  0  0  0  0  0  0
    7.9731    0.6007    0.0000 C   0  0  0  0  0  0  0  0  0  0  0  0
    5.3507   -1.5372    0.0000 C   0  0  0  0  0  0  0  0  0  0  0  0
    5.0417   -0.5862    0.0000 C   0  0  0  0  0  0  0  0  0  0  0  0
    8.9488    0.8199    0.0000 C   0  0  0  0  0  0  0  0  0  0  0  0
    4.6657   -2.3220    0.0000 C   0  0  0  0  0  0  0  0  0  0  0  0
    4.0263   -0.3539    0.0000 C   0  0  0  0  0  0  0  0  0  0  0  0
    9.2468    1.7744    0.0000 C   0  0  0  0  0  0  0  0  0  0  0  0
    3.6452   -2.1132    0.0000 C   0  0  0  0  0  0  0  0  0  0  0  0
    9.6265    0.0845    0.0000 C   0  0  0  0  0  0  0  0  0  0  0  0
    3.3233   -1.1226    0.0000 C   0  0  0  0  0  0  0  0  0  0  0  0
   10.2225    1.9936    0.0000 C   0  0  0  0  0  0  0  0  0  0  0  0
   10.9001    1.2583    0.0000 C   0  0  0  0  0  0  0  0  0  0  0  0
   10.6021    0.3037    0.0000 C   0  0  0  0  0  0  0  0  0  0  0  0
   11.6863    2.6627    0.0000 C   0  0  0  0  0  0  0  0  0  0  0  0
    2.0000   -2.6548    0.0000 C   0  0  0  0  0  0  0  0  0  0  0  0
    8.2803   -0.2192    0.0000 H   0  0  0  0  0  0  0  0  0  0  0  0
    6.5057   -2.6437    0.0000 H   0  0  0  0  0  0  0  0  0  0  0  0
    7.2620   -2.8992    0.0000 H   0  0  0  0  0  0  0  0  0  0  0  0
    8.0746   -2.7330    0.0000 H   0  0  0  0  0  0  0  0  0  0  0  0
    8.6699   -2.2011    0.0000 H   0  0  0  0  0  0  0  0  0  0  0  0
    7.9443    1.2200    0.0000 H   0  0  0  0  0  0  0  0  0  0  0  0
    7.3582    0.6798    0.0000 H   0  0  0  0  0  0  0  0  0  0  0  0
    8.9840   -0.9914    0.0000 H   0  0  0  0  0  0  0  0  0  0  0  0
    5.8507    0.6216    0.0000 H   0  0  0  0  0  0  0  0  0  0  0  0
    4.8641   -2.9094    0.0000 H   0  0  0  0  0  0  0  0  0  0  0  0
    3.8415    0.2379    0.0000 H   0  0  0  0  0  0  0  0  0  0  0  0
    8.8266    2.2304    0.0000 H   0  0  0  0  0  0  0  0  0  0  0  0
    9.4417   -0.5073    0.0000 H   0  0  0  0  0  0  0  0  0  0  0  0
    2.7174   -0.9914    0.0000 H   0  0  0  0  0  0  0  0  0  0  0  0
   11.0223   -0.1522    0.0000 H   0  0  0  0  0  0  0  0  0  0  0  0
   12.3062    2.6700    0.0000 H   0  0  0  0  0  0  0  0  0  0  0  0
   11.7441    3.2800    0.0000 H   0  0  0  0  0  0  0  0  0  0  0  0
    2.1266   -2.0479    0.0000 H   0  0  0  0  0  0  0  0  0  0  0  0
    1.3931   -2.5283    0.0000 H   0  0  0  0  0  0  0  0  0  0  0  0
    1.8734   -3.2618    0.0000 H   0  0  0  0  0  0  0  0  0  0  0  0
  1 18  1  0  0  0  0
  1 25  1  0  0  0  0
  2 21  1  0  0  0  0
  2 24  1  0  0  0  0
  3 22  1  0  0  0  0
  3 24  1  0  0  0  0
  4  6  1  0  0  0  0
  4 10  1  0  0  0  0
  4 33  1  0  0  0  0
  5  7  1  0  0  0  0
  5 13  1  0  0  0  0
  5 34  1  0  0  0  0
  6  7  1  0  0  0  0
  6 11  1  0  0  0  0
  6 26  1  0  0  0  0
  7  8  2  0  0  0  0
  8  9  1  0  0  0  0
  8 12  1  0  0  0  0
  9 10  1  0  0  0  0
  9 27  1  0  0  0  0
  9 28  1  0  0  0  0
 10 29  1  0  0  0  0
 10 30  1  0  0  0  0
 11 14  1  0  0  0  0
 11 31  1  0  0  0  0
 11 32  1  0  0  0  0
 12 13  2  0  0  0  0
 12 15  1  0  0  0  0
 13 16  1  0  0  0  0
 14 17  2  0  0  0  0
 14 19  1  0  0  0  0
 15 18  2  0  0  0  0
 15 35  1  0  0  0  0
 16 20  2  0  0  0  0
 16 36  1  0  0  0  0
 17 21  1  0  0  0  0
 17 37  1  0  0  0  0
 18 20  1  0  0  0  0
 19 23  2  0  0  0  0
 19 38  1  0  0  0  0
 20 39  1  0  0  0  0
 21 22  2  0  0  0  0
 22 23  1  0  0  0  0
 23 40  1  0  0  0  0
 24 41  1  0  0  0  0
 24 42  1  0  0  0  0
 25 43  1  0  0  0  0
 25 44  1  0  0  0  0
 25 45  1  0  0  0  0
M  END
> <PUBCHEM_COMPOUND_CID>
44439391

> <PUBCHEM_COMPOUND_CANONICALIZED>
1

> <PUBCHEM_CACTVS_COMPLEXITY>
476

> <PUBCHEM_CACTVS_HBOND_ACCEPTOR>
4

> <PUBCHEM_CACTVS_HBOND_DONOR>
2

> <PUBCHEM_CACTVS_ROTATABLE_BOND>
3

> <PUBCHEM_CACTVS_SUBSKEYS>
AAADceB7MAAAAAAAAAAAAAAAAAAAAWJAAAA8YIAAAAAAAFgB9AAAHgAQAAAADCzBngcyzvLJlACgAyRiRACCiCAhIiAImaA+7JgdZuLEsZu0MCpk0BHO6Aew0PMOoEABAAACQABAgAIAAASAAAAAAAAAAA==

> <PUBCHEM_IUPAC_OPENEYE_NAME>
1-(1,3-benzodioxol-5-ylmethyl)-6-methoxy-2,3,4,9-tetrahydro-1H-pyrido[3,4-b]indole

> <PUBCHEM_IUPAC_CAS_NAME>
1-(1,3-benzodioxol-5-ylmethyl)-6-methoxy-2,3,4,9-tetrahydro-1H-pyrido[3,4-b]indole

> <PUBCHEM_IUPAC_NAME_MARKUP>
1-(1,3-benzodioxol-5-ylmethyl)-6-methoxy-2,3,4,9-tetrahydro-1<I>H</I>-pyrido[3,4-b]indole

> <PUBCHEM_IUPAC_NAME>
1-(1,3-benzodioxol-5-ylmethyl)-6-methoxy-2,3,4,9-tetrahydro-1H-pyrido[3,4-b]indole

> <PUBCHEM_IUPAC_SYSTEMATIC_NAME>
1-(1,3-benzodioxol-5-ylmethyl)-6-methoxy-2,3,4,9-tetrahydro-1H-pyrido[3,4-b]indole

> <PUBCHEM_IUPAC_TRADITIONAL_NAME>
6-methoxy-1-piperonyl-2,3,4,9-tetrahydro-1H-beta-carboline

> <PUBCHEM_IUPAC_INCHI>
InChI=1S/C20H20N2O3/c1-23-13-3-4-16-15(10-13)14-6-7-21-17(20(14)22-16)8-12-2-5-18-19(9-12)25-11-24-18/h2-5,9-10,17,21-22H,6-8,11H2,1H3

> <PUBCHEM_IUPAC_INCHIKEY>
GSJJDYOIKNLJCL-UHFFFAOYSA-N

> <PUBCHEM_XLOGP3_AA>
3.3

> <PUBCHEM_EXACT_MASS>
336.14739250

> <PUBCHEM_MOLECULAR_FORMULA>
C20H20N2O3

> <PUBCHEM_MOLECULAR_WEIGHT>
336.4

> <PUBCHEM_OPENEYE_CAN_SMILES>
COC1=CC2=C(C=C1)NC3=C2CCNC3CC4=CC5=C(C=C4)OCO5

> <PUBCHEM_OPENEYE_ISO_SMILES>
COC1=CC2=C(C=C1)NC3=C2CCNC3CC4=CC5=C(C=C4)OCO5

> <PUBCHEM_CACTVS_TPSA>
55.5

> <PUBCHEM_MONOISOTOPIC_WEIGHT>
336.14739250

> <PUBCHEM_TOTAL_CHARGE>
0

> <PUBCHEM_HEAVY_ATOM_COUNT>
25

> <PUBCHEM_ATOM_DEF_STEREO_COUNT>
0

> <PUBCHEM_ATOM_UDEF_STEREO_COUNT>
1

> <PUBCHEM_BOND_DEF_STEREO_COUNT>
0

> <PUBCHEM_BOND_UDEF_STEREO_COUNT>
0

> <PUBCHEM_ISOTOPIC_ATOM_COUNT>
0

> <PUBCHEM_COMPONENT_COUNT>
1

> <PUBCHEM_CACTVS_TAUTO_COUNT>
-1

> <PUBCHEM_COORDINATE_TYPE>
1
5
255

> <PUBCHEM_BONDANNOTATIONS>
12  13  8
12  15  8
13  16  8
14  17  8
14  19  8
15  18  8
16  20  8
17  21  8
18  20  8
19  23  8
21  22  8
22  23  8
5  13  8
5  7  8
6  11  3
7  8  8
8  12  8

$$$$
