132584404
  -OEChem-09292322472D

 61 65  0     1  0  0  0  0  0999 V2000
    4.0000    4.6344    0.0000 F   0  0  0  0  0  0  0  0  0  0  0  0
    3.0038    5.6382    0.0000 F   0  0  0  0  0  0  0  0  0  0  0  0
    2.0000    4.6421    0.0000 F   0  0  0  0  0  0  0  0  0  0  0  0
    3.9148   -3.1349    0.0000 N   0  0  3  0  0  0  0  0  0  0  0  0
    4.8129    1.4759    0.0000 N   0  0  0  0  0  0  0  0  0  0  0  0
    4.7968   -1.5656    0.0000 C   0  0  2  0  0  0  0  0  0  0  0  0
    5.6628   -1.0656    0.0000 C   0  0  1  0  0  0  0  0  0  0  0  0
    4.8129   -2.6071    0.0000 C   0  0  1  0  0  0  0  0  0  0  0  0
    3.9308   -1.0656    0.0000 C   0  0  1  0  0  0  0  0  0  0  0  0
    5.6628   -0.0656    0.0000 C   0  0  2  0  0  0  0  0  0  0  0  0
    6.5223   -1.5604    0.0000 C   0  0  0  0  0  0  0  0  0  0  0  0
    5.6900   -3.0699    0.0000 C   0  0  0  0  0  0  0  0  0  0  0  0
    3.0208   -1.5725    0.0000 C   0  0  0  0  0  0  0  0  0  0  0  0
    6.5357   -2.5520    0.0000 C   0  0  0  0  0  0  0  0  0  0  0  0
    3.9308   -0.0656    0.0000 C   0  0  0  0  0  0  0  0  0  0  0  0
    3.0128   -2.6141    0.0000 C   0  0  0  0  0  0  0  0  0  0  0  0
    4.7968    0.4344    0.0000 C   0  0  0  0  0  0  0  0  0  0  0  0
    6.5289    0.4344    0.0000 C   0  0  0  0  0  0  0  0  0  0  0  0
    3.9187   -4.1349    0.0000 C   0  0  0  0  0  0  0  0  0  0  0  0
    3.0208    0.4412    0.0000 C   0  0  0  0  0  0  0  0  0  0  0  0
    7.3949   -0.0656    0.0000 C   0  0  0  0  0  0  0  0  0  0  0  0
    3.0546   -4.6382    0.0000 C   0  0  0  0  0  0  0  0  0  0  0  0
    3.0128    1.4828    0.0000 C   0  0  0  0  0  0  0  0  0  0  0  0
    3.9148    2.0036    0.0000 C   0  0  0  0  0  0  0  0  0  0  0  0
    3.0584   -5.6382    0.0000 C   0  0  0  0  0  0  0  0  0  0  0  0
    2.0649    2.0108    0.0000 C   0  0  0  0  0  0  0  0  0  0  0  0
    3.9316    3.0885    0.0000 C   0  0  0  0  0  0  0  0  0  0  0  0
    2.9961    3.6382    0.0000 C   0  0  0  0  0  0  0  0  0  0  0  0
    2.0565    3.0957    0.0000 C   0  0  0  0  0  0  0  0  0  0  0  0
    3.0000    4.6382    0.0000 C   0  0  0  0  0  0  0  0  0  0  0  0
    4.0607   -1.9906    0.0000 H   0  0  0  0  0  0  0  0  0  0  0  0
    6.3987   -0.6402    0.0000 H   0  0  0  0  0  0  0  0  0  0  0  0
    4.8324   -3.4569    0.0000 H   0  0  0  0  0  0  0  0  0  0  0  0
    3.1980   -0.6350    0.0000 H   0  0  0  0  0  0  0  0  0  0  0  0
    5.6628    0.5544    0.0000 H   0  0  0  0  0  0  0  0  0  0  0  0
    7.1339   -1.6623    0.0000 H   0  0  0  0  0  0  0  0  0  0  0  0
    6.7312   -0.9767    0.0000 H   0  0  0  0  0  0  0  0  0  0  0  0
    5.3078   -3.5581    0.0000 H   0  0  0  0  0  0  0  0  0  0  0  0
    6.1026   -3.5327    0.0000 H   0  0  0  0  0  0  0  0  0  0  0  0
    2.8162   -0.9872    0.0000 H   0  0  0  0  0  0  0  0  0  0  0  0
    2.4091   -1.6738    0.0000 H   0  0  0  0  0  0  0  0  0  0  0  0
    6.7604   -3.1299    0.0000 H   0  0  0  0  0  0  0  0  0  0  0  0
    7.1443   -2.4336    0.0000 H   0  0  0  0  0  0  0  0  0  0  0  0
    2.4027   -2.5033    0.0000 H   0  0  0  0  0  0  0  0  0  0  0  0
    2.7992   -3.1961    0.0000 H   0  0  0  0  0  0  0  0  0  0  0  0
    6.9274    0.9093    0.0000 H   0  0  0  0  0  0  0  0  0  0  0  0
    6.1303    0.9093    0.0000 H   0  0  0  0  0  0  0  0  0  0  0  0
    4.1330   -4.7167    0.0000 H   0  0  0  0  0  0  0  0  0  0  0  0
    4.5288   -4.0249    0.0000 H   0  0  0  0  0  0  0  0  0  0  0  0
    2.4875    0.1250    0.0000 H   0  0  0  0  0  0  0  0  0  0  0  0
    7.0849   -0.6026    0.0000 H   0  0  0  0  0  0  0  0  0  0  0  0
    7.9318   -0.3756    0.0000 H   0  0  0  0  0  0  0  0  0  0  0  0
    7.7049    0.4713    0.0000 H   0  0  0  0  0  0  0  0  0  0  0  0
    2.8403   -4.0564    0.0000 H   0  0  0  0  0  0  0  0  0  0  0  0
    2.4444   -4.7482    0.0000 H   0  0  0  0  0  0  0  0  0  0  0  0
    2.4385   -5.6406    0.0000 H   0  0  0  0  0  0  0  0  0  0  0  0
    3.0608   -6.2582    0.0000 H   0  0  0  0  0  0  0  0  0  0  0  0
    3.6784   -5.6358    0.0000 H   0  0  0  0  0  0  0  0  0  0  0  0
    1.5316    1.6946    0.0000 H   0  0  0  0  0  0  0  0  0  0  0  0
    4.4720    3.3923    0.0000 H   0  0  0  0  0  0  0  0  0  0  0  0
    1.5184    3.4036    0.0000 H   0  0  0  0  0  0  0  0  0  0  0  0
  1 30  1  0  0  0  0
  2 30  1  0  0  0  0
  3 30  1  0  0  0  0
  4  8  1  0  0  0  0
  4 16  1  0  0  0  0
  4 19  1  0  0  0  0
  5 17  1  0  0  0  0
  5 24  2  0  0  0  0
  6  7  1  0  0  0  0
  6  8  1  0  0  0  0
  6  9  1  0  0  0  0
  6 31  1  1  0  0  0
  7 10  1  0  0  0  0
  7 11  1  0  0  0  0
  7 32  1  6  0  0  0
  8 12  1  0  0  0  0
  8 33  1  6  0  0  0
  9 13  1  0  0  0  0
  9 15  1  0  0  0  0
  9 34  1  6  0  0  0
 10 17  1  0  0  0  0
 10 18  1  6  0  0  0
 10 35  1  0  0  0  0
 11 14  1  0  0  0  0
 11 36  1  0  0  0  0
 11 37  1  0  0  0  0
 12 14  1  0  0  0  0
 12 38  1  0  0  0  0
 12 39  1  0  0  0  0
 13 16  1  0  0  0  0
 13 40  1  0  0  0  0
 13 41  1  0  0  0  0
 14 42  1  0  0  0  0
 14 43  1  0  0  0  0
 15 17  2  0  0  0  0
 15 20  1  0  0  0  0
 16 44  1  0  0  0  0
 16 45  1  0  0  0  0
 18 21  1  0  0  0  0
 18 46  1  0  0  0  0
 18 47  1  0  0  0  0
 19 22  1  0  0  0  0
 19 48  1  0  0  0  0
 19 49  1  0  0  0  0
 20 23  2  0  0  0  0
 20 50  1  0  0  0  0
 21 51  1  0  0  0  0
 21 52  1  0  0  0  0
 21 53  1  0  0  0  0
 22 25  1  0  0  0  0
 22 54  1  0  0  0  0
 22 55  1  0  0  0  0
 23 24  1  0  0  0  0
 23 26  1  0  0  0  0
 24 27  1  0  0  0  0
 25 56  1  0  0  0  0
 25 57  1  0  0  0  0
 25 58  1  0  0  0  0
 26 29  2  0  0  0  0
 26 59  1  0  0  0  0
 27 28  2  0  0  0  0
 27 60  1  0  0  0  0
 28 29  1  0  0  0  0
 28 30  1  0  0  0  0
 29 61  1  0  0  0  0
M  END
> <PUBCHEM_COMPOUND_CID>
132584404

> <PUBCHEM_COMPOUND_CANONICALIZED>
1

> <PUBCHEM_CACTVS_COMPLEXITY>
608

> <PUBCHEM_CACTVS_HBOND_ACCEPTOR>
5

> <PUBCHEM_CACTVS_HBOND_DONOR>
0

> <PUBCHEM_CACTVS_ROTATABLE_BOND>
3

> <PUBCHEM_CACTVS_SUBSKEYS>
AAADceB7AYAAAAAAAAAAAAAAAAAAAAAAAAA8eMECAAAAAADx8AAAHQAAAAAADSjBHhQywPMIEACgAyRiRACCgCAhAiAImCA4ZJgIIOLAkZGEIAhggADIyAcQgMAOwAAAQAACAACQAASAACQAAAAAAAAAAA==

> <PUBCHEM_IUPAC_OPENEYE_NAME>
(1R,12R,13S,17R,21S)-12-ethyl-18-propyl-7-(trifluoromethyl)-10,18-diazapentacyclo[11.7.1.02,11.04,9.017,21]henicosa-2(11),3,5,7,9-pentaene

> <PUBCHEM_IUPAC_CAS_NAME>
(1R,12R,13S,17R,21S)-12-ethyl-18-propyl-7-(trifluoromethyl)-10,18-diazapentacyclo[11.7.1.02,11.04,9.017,21]heneicosa-2(11),3,5,7,9-pentaene

> <PUBCHEM_IUPAC_NAME_MARKUP>
(1<I>R</I>,12<I>R</I>,13<I>S</I>,17<I>R</I>,21<I>S</I>)-12-ethyl-18-propyl-7-(trifluoromethyl)-10,18-diazapentacyclo[11.7.1.0<SUP>2,11</SUP>.0<SUP>4,9</SUP>.0<SUP>17,21</SUP>]henicosa-2(11),3,5,7,9-pentaene

> <PUBCHEM_IUPAC_NAME>
(1R,12R,13S,17R,21S)-12-ethyl-18-propyl-7-(trifluoromethyl)-10,18-diazapentacyclo[11.7.1.02,11.04,9.017,21]henicosa-2(11),3,5,7,9-pentaene

> <PUBCHEM_IUPAC_SYSTEMATIC_NAME>
(1R,12R,13S,17R,21S)-12-ethyl-18-propyl-7-(trifluoromethyl)-10,18-diazapentacyclo[11.7.1.02,11.04,9.017,21]henicosa-2(11),3,5,7,9-pentaene

> <PUBCHEM_IUPAC_TRADITIONAL_NAME>
(1R,12R,13S,17R,21S)-12-ethyl-18-propyl-7-(trifluoromethyl)-10,18-diazapentacyclo[11.7.1.02,11.04,9.017,21]heneicosa-2(11),3,5,7,9-pentaene

> <PUBCHEM_IUPAC_INCHI>
InChI=1S/C25H31F3N2/c1-3-11-30-12-10-19-20-13-15-8-9-16(25(26,27)28)14-21(15)29-24(20)17(4-2)18-6-5-7-22(30)23(18)19/h8-9,13-14,17-19,22-23H,3-7,10-12H2,1-2H3/t17-,18-,19+,22-,23+/m1/s1

> <PUBCHEM_IUPAC_INCHIKEY>
LILDBTJYRFAMFE-VCSLONGPSA-N

> <PUBCHEM_XLOGP3_AA>
6.6

> <PUBCHEM_EXACT_MASS>
416.24393348

> <PUBCHEM_MOLECULAR_FORMULA>
C25H31F3N2

> <PUBCHEM_MOLECULAR_WEIGHT>
416.5

> <PUBCHEM_OPENEYE_CAN_SMILES>
CCCN1CCC2C3C1CCCC3C(C4=C2C=C5C=CC(=CC5=N4)C(F)(F)F)CC

> <PUBCHEM_OPENEYE_ISO_SMILES>
CCCN1CC[C@@H]2[C@H]3[C@H]1CCC[C@@H]3[C@H](C4=C2C=C5C=CC(=CC5=N4)C(F)(F)F)CC

> <PUBCHEM_CACTVS_TPSA>
16.1

> <PUBCHEM_MONOISOTOPIC_WEIGHT>
416.24393348

> <PUBCHEM_TOTAL_CHARGE>
0

> <PUBCHEM_HEAVY_ATOM_COUNT>
30

> <PUBCHEM_ATOM_DEF_STEREO_COUNT>
5

> <PUBCHEM_ATOM_UDEF_STEREO_COUNT>
0

> <PUBCHEM_BOND_DEF_STEREO_COUNT>
0

> <PUBCHEM_BOND_UDEF_STEREO_COUNT>
0

> <PUBCHEM_ISOTOPIC_ATOM_COUNT>
0

> <PUBCHEM_COMPONENT_COUNT>
1

> <PUBCHEM_CACTVS_TAUTO_COUNT>
-1

> <PUBCHEM_COORDINATE_TYPE>
1
5
255

> <PUBCHEM_BONDANNOTATIONS>
10  18  6
15  17  8
15  20  8
20  23  8
23  24  8
23  26  8
24  27  8
26  29  8
27  28  8
28  29  8
5  17  8
5  24  8
6  31  5
7  32  6
8  33  6
9  34  6

$$$$
