45268987
  -OEChem-09292322282D

 45 48  0     0  0  0  0  0  0999 V2000
   12.5368   -1.4546    0.0000 F   0  0  0  0  0  0  0  0  0  0  0  0
    8.0406   -0.3635    0.0000 O   0  0  0  0  0  0  0  0  0  0  0  0
    5.2619    2.2626    0.0000 N   0  0  0  0  0  0  0  0  0  0  0  0
    7.7619    1.3966    0.0000 N   0  0  0  0  0  0  0  0  0  0  0  0
    9.3007    0.8966    0.0000 N   0  0  0  0  0  0  0  0  0  0  0  0
   10.6052   -3.2626    0.0000 N   0  0  0  0  0  0  0  0  0  0  0  0
    6.2619    2.2626    0.0000 C   0  0  0  0  0  0  0  0  0  0  0  0
    6.7619    1.3966    0.0000 C   0  0  0  0  0  0  0  0  0  0  0  0
    4.6783    3.0673    0.0000 C   0  0  0  0  0  0  0  0  0  0  0  0
    4.6783    1.4578    0.0000 C   0  0  0  0  0  0  0  0  0  0  0  0
    8.3497    2.2056    0.0000 C   0  0  0  0  0  0  0  0  0  0  0  0
    3.7320    2.7626    0.0000 C   0  0  0  0  0  0  0  0  0  0  0  0
    3.7320    1.7626    0.0000 C   0  0  0  0  0  0  0  0  0  0  0  0
    9.3007    1.8966    0.0000 C   0  0  0  0  0  0  0  0  0  0  0  0
    8.3497    0.5875    0.0000 C   0  0  0  0  0  0  0  0  0  0  0  0
    2.8660    3.2626    0.0000 C   0  0  0  0  0  0  0  0  0  0  0  0
    2.8660    1.2626    0.0000 C   0  0  0  0  0  0  0  0  0  0  0  0
   10.1097    0.3088    0.0000 C   0  0  0  0  0  0  0  0  0  0  0  0
    2.0000    2.7626    0.0000 C   0  0  0  0  0  0  0  0  0  0  0  0
    2.0000    1.7626    0.0000 C   0  0  0  0  0  0  0  0  0  0  0  0
   10.0052   -0.6858    0.0000 C   0  0  0  0  0  0  0  0  0  0  0  0
   11.0233    0.7155    0.0000 C   0  0  0  0  0  0  0  0  0  0  0  0
   10.8142   -1.2735    0.0000 C   0  0  0  0  0  0  0  0  0  0  0  0
   11.8323    0.1277    0.0000 C   0  0  0  0  0  0  0  0  0  0  0  0
   11.7278   -0.8668    0.0000 C   0  0  0  0  0  0  0  0  0  0  0  0
   10.7097   -2.2681    0.0000 C   0  0  0  0  0  0  0  0  0  0  0  0
    6.8445    2.4746    0.0000 H   0  0  0  0  0  0  0  0  0  0  0  0
    6.1542    2.8732    0.0000 H   0  0  0  0  0  0  0  0  0  0  0  0
    6.1793    1.1845    0.0000 H   0  0  0  0  0  0  0  0  0  0  0  0
    6.8695    0.7860    0.0000 H   0  0  0  0  0  0  0  0  0  0  0  0
    5.2156    3.3765    0.0000 H   0  0  0  0  0  0  0  0  0  0  0  0
    4.4272    3.6342    0.0000 H   0  0  0  0  0  0  0  0  0  0  0  0
    4.4272    0.8909    0.0000 H   0  0  0  0  0  0  0  0  0  0  0  0
    5.2156    1.1486    0.0000 H   0  0  0  0  0  0  0  0  0  0  0  0
    8.6018    2.7720    0.0000 H   0  0  0  0  0  0  0  0  0  0  0  0
    7.8127    2.5156    0.0000 H   0  0  0  0  0  0  0  0  0  0  0  0
    9.9173    1.8318    0.0000 H   0  0  0  0  0  0  0  0  0  0  0  0
    9.4296    2.5030    0.0000 H   0  0  0  0  0  0  0  0  0  0  0  0
    2.8660    3.8826    0.0000 H   0  0  0  0  0  0  0  0  0  0  0  0
    2.8660    0.6426    0.0000 H   0  0  0  0  0  0  0  0  0  0  0  0
    1.4631    3.0726    0.0000 H   0  0  0  0  0  0  0  0  0  0  0  0
    1.4631    1.4526    0.0000 H   0  0  0  0  0  0  0  0  0  0  0  0
    9.4388   -0.9379    0.0000 H   0  0  0  0  0  0  0  0  0  0  0  0
   11.0881    1.3321    0.0000 H   0  0  0  0  0  0  0  0  0  0  0  0
   12.3987    0.3799    0.0000 H   0  0  0  0  0  0  0  0  0  0  0  0
  1 25  1  0  0  0  0
  2 15  2  0  0  0  0
  3  7  1  0  0  0  0
  3  9  1  0  0  0  0
  3 10  1  0  0  0  0
  4  8  1  0  0  0  0
  4 11  1  0  0  0  0
  4 15  1  0  0  0  0
  5 14  1  0  0  0  0
  5 15  1  0  0  0  0
  5 18  1  0  0  0  0
  6 26  3  0  0  0  0
  7  8  1  0  0  0  0
  7 27  1  0  0  0  0
  7 28  1  0  0  0  0
  8 29  1  0  0  0  0
  8 30  1  0  0  0  0
  9 12  1  0  0  0  0
  9 31  1  0  0  0  0
  9 32  1  0  0  0  0
 10 13  1  0  0  0  0
 10 33  1  0  0  0  0
 10 34  1  0  0  0  0
 11 14  1  0  0  0  0
 11 35  1  0  0  0  0
 11 36  1  0  0  0  0
 12 13  1  0  0  0  0
 12 16  2  0  0  0  0
 13 17  2  0  0  0  0
 14 37  1  0  0  0  0
 14 38  1  0  0  0  0
 16 19  1  0  0  0  0
 16 39  1  0  0  0  0
 17 20  1  0  0  0  0
 17 40  1  0  0  0  0
 18 21  2  0  0  0  0
 18 22  1  0  0  0  0
 19 20  2  0  0  0  0
 19 41  1  0  0  0  0
 20 42  1  0  0  0  0
 21 23  1  0  0  0  0
 21 43  1  0  0  0  0
 22 24  2  0  0  0  0
 22 44  1  0  0  0  0
 23 25  2  0  0  0  0
 23 26  1  0  0  0  0
 24 25  1  0  0  0  0
 24 45  1  0  0  0  0
M  END
> <PUBCHEM_COMPOUND_CID>
45268987

> <PUBCHEM_COMPOUND_CANONICALIZED>
1

> <PUBCHEM_CACTVS_COMPLEXITY>
561

> <PUBCHEM_CACTVS_HBOND_ACCEPTOR>
4

> <PUBCHEM_CACTVS_HBOND_DONOR>
0

> <PUBCHEM_CACTVS_ROTATABLE_BOND>
4

> <PUBCHEM_CACTVS_SUBSKEYS>
AAADceB7oQAAAAAAAAAAAAAAAAAAAWLAAAAwYAAAAAAAAFgBQAAAHwAAAAAADAjBGAwxwIMAAACYBiRCUACiAAAhAgAIiAAIZIiI4CLAkZGUIAhohgLIyC8QgIAOgAAAQAAQAAAAAACAACAAAAAAAAAAAA==

> <PUBCHEM_IUPAC_OPENEYE_NAME>
2-fluoro-5-[3-(2-isoindolin-2-ylethyl)-2-oxo-imidazolidin-1-yl]benzonitrile

> <PUBCHEM_IUPAC_CAS_NAME>
5-[3-[2-(1,3-dihydroisoindol-2-yl)ethyl]-2-oxo-1-imidazolidinyl]-2-fluorobenzonitrile

> <PUBCHEM_IUPAC_NAME_MARKUP>
5-[3-[2-(1,3-dihydroisoindol-2-yl)ethyl]-2-oxoimidazolidin-1-yl]-2-fluorobenzonitrile

> <PUBCHEM_IUPAC_NAME>
5-[3-[2-(1,3-dihydroisoindol-2-yl)ethyl]-2-oxoimidazolidin-1-yl]-2-fluorobenzonitrile

> <PUBCHEM_IUPAC_SYSTEMATIC_NAME>
5-[3-[2-(1,3-dihydroisoindol-2-yl)ethyl]-2-oxidanylidene-imidazolidin-1-yl]-2-fluoranyl-benzenecarbonitrile

> <PUBCHEM_IUPAC_TRADITIONAL_NAME>
2-fluoro-5-[3-(2-isoindolin-2-ylethyl)-2-keto-imidazolidin-1-yl]benzonitrile

> <PUBCHEM_IUPAC_INCHI>
InChI=1S/C20H19FN4O/c21-19-6-5-18(11-17(19)12-22)25-10-9-24(20(25)26)8-7-23-13-15-3-1-2-4-16(15)14-23/h1-6,11H,7-10,13-14H2

> <PUBCHEM_IUPAC_INCHIKEY>
DGTBKKBZRIVWMP-UHFFFAOYSA-N

> <PUBCHEM_XLOGP3_AA>
2

> <PUBCHEM_EXACT_MASS>
350.15428940

> <PUBCHEM_MOLECULAR_FORMULA>
C20H19FN4O

> <PUBCHEM_MOLECULAR_WEIGHT>
350.4

> <PUBCHEM_OPENEYE_CAN_SMILES>
C1CN(C(=O)N1CCN2CC3=CC=CC=C3C2)C4=CC(=C(C=C4)F)C#N

> <PUBCHEM_OPENEYE_ISO_SMILES>
C1CN(C(=O)N1CCN2CC3=CC=CC=C3C2)C4=CC(=C(C=C4)F)C#N

> <PUBCHEM_CACTVS_TPSA>
50.6

> <PUBCHEM_MONOISOTOPIC_WEIGHT>
350.15428940

> <PUBCHEM_TOTAL_CHARGE>
0

> <PUBCHEM_HEAVY_ATOM_COUNT>
26

> <PUBCHEM_ATOM_DEF_STEREO_COUNT>
0

> <PUBCHEM_ATOM_UDEF_STEREO_COUNT>
0

> <PUBCHEM_BOND_DEF_STEREO_COUNT>
0

> <PUBCHEM_BOND_UDEF_STEREO_COUNT>
0

> <PUBCHEM_ISOTOPIC_ATOM_COUNT>
0

> <PUBCHEM_COMPONENT_COUNT>
1

> <PUBCHEM_CACTVS_TAUTO_COUNT>
-1

> <PUBCHEM_COORDINATE_TYPE>
1
5
255

> <PUBCHEM_BONDANNOTATIONS>
12  13  8
12  16  8
13  17  8
16  19  8
17  20  8
18  21  8
18  22  8
19  20  8
21  23  8
22  24  8
23  25  8
24  25  8

$$$$
