71660496
  -OEChem-09292322072D

 62 66  0     1  0  0  0  0  0999 V2000
    2.3660   -1.9309    0.0000 O   0  0  0  0  0  0  0  0  0  0  0  0
    2.8272   -0.2096    0.0000 O   0  0  0  0  0  0  0  0  0  0  0  0
    3.9487   -1.5945    0.0000 N   0  0  0  0  0  0  0  0  0  0  0  0
    9.1448    0.4055    0.0000 N   0  0  0  0  0  0  0  0  0  0  0  0
   10.0109    1.9055    0.0000 N   0  0  0  0  0  0  0  0  0  0  0  0
    9.1448    3.4055    0.0000 N   0  0  0  0  0  0  0  0  0  0  0  0
    7.4128    3.4055    0.0000 N   0  0  0  0  0  0  0  0  0  0  0  0
    4.8147   -1.0945    0.0000 C   0  0  0  0  0  0  0  0  0  0  0  0
    5.6808   -1.5945    0.0000 C   0  0  0  0  0  0  0  0  0  0  0  0
    4.8147   -0.0945    0.0000 C   0  0  0  0  0  0  0  0  0  0  0  0
    3.8442   -2.5891    0.0000 C   0  0  2  0  0  0  0  0  0  0  0  0
    6.5468   -0.0945    0.0000 C   0  0  0  0  0  0  0  0  0  0  0  0
    6.5468   -1.0945    0.0000 C   0  0  0  0  0  0  0  0  0  0  0  0
    5.6808    0.4055    0.0000 C   0  0  0  0  0  0  0  0  0  0  0  0
    2.8660   -2.7970    0.0000 C   0  0  0  0  0  0  0  0  0  0  0  0
    3.0352   -1.1878    0.0000 C   0  0  0  0  0  0  0  0  0  0  0  0
    4.5873   -3.2582    0.0000 C   0  0  0  0  0  0  0  0  0  0  0  0
    7.4128    0.4055    0.0000 C   0  0  0  0  0  0  0  0  0  0  0  0
    2.0000   -3.2970    0.0000 C   0  0  0  0  0  0  0  0  0  0  0  0
    3.0739   -3.7751    0.0000 C   0  0  0  0  0  0  0  0  0  0  0  0
    4.3794   -4.2363    0.0000 C   0  0  0  0  0  0  0  0  0  0  0  0
    5.5384   -2.9492    0.0000 C   0  0  0  0  0  0  0  0  0  0  0  0
    7.4128    1.4055    0.0000 C   0  0  0  0  0  0  0  0  0  0  0  0
    8.2788   -0.0945    0.0000 C   0  0  0  0  0  0  0  0  0  0  0  0
    8.2788    1.9055    0.0000 C   0  0  0  0  0  0  0  0  0  0  0  0
    5.1226   -4.9055    0.0000 C   0  0  0  0  0  0  0  0  0  0  0  0
    6.2815   -3.6183    0.0000 C   0  0  0  0  0  0  0  0  0  0  0  0
    9.1448    1.4055    0.0000 C   0  0  0  0  0  0  0  0  0  0  0  0
    6.0736   -4.5964    0.0000 C   0  0  0  0  0  0  0  0  0  0  0  0
    8.2788    2.9055    0.0000 C   0  0  0  0  0  0  0  0  0  0  0  0
    9.1448    4.4055    0.0000 C   0  0  0  0  0  0  0  0  0  0  0  0
    7.4128    4.4055    0.0000 C   0  0  0  0  0  0  0  0  0  0  0  0
    8.2788    4.9055    0.0000 C   0  0  0  0  0  0  0  0  0  0  0  0
    4.8147   -1.7145    0.0000 H   0  0  0  0  0  0  0  0  0  0  0  0
    5.2822   -2.0695    0.0000 H   0  0  0  0  0  0  0  0  0  0  0  0
    6.0793   -2.0695    0.0000 H   0  0  0  0  0  0  0  0  0  0  0  0
    4.6027    0.4881    0.0000 H   0  0  0  0  0  0  0  0  0  0  0  0
    4.2042   -0.2022    0.0000 H   0  0  0  0  0  0  0  0  0  0  0  0
    3.6837   -3.1879    0.0000 H   0  0  0  0  0  0  0  0  0  0  0  0
    6.5468    0.5255    0.0000 H   0  0  0  0  0  0  0  0  0  0  0  0
    6.7588   -1.6771    0.0000 H   0  0  0  0  0  0  0  0  0  0  0  0
    7.1574   -0.9869    0.0000 H   0  0  0  0  0  0  0  0  0  0  0  0
    6.0793    0.8804    0.0000 H   0  0  0  0  0  0  0  0  0  0  0  0
    5.2822    0.8804    0.0000 H   0  0  0  0  0  0  0  0  0  0  0  0
    1.6900   -2.7600    0.0000 H   0  0  0  0  0  0  0  0  0  0  0  0
    1.4631   -3.6070    0.0000 H   0  0  0  0  0  0  0  0  0  0  0  0
    2.3100   -3.8339    0.0000 H   0  0  0  0  0  0  0  0  0  0  0  0
    2.4675   -3.9040    0.0000 H   0  0  0  0  0  0  0  0  0  0  0  0
    3.2028   -4.3816    0.0000 H   0  0  0  0  0  0  0  0  0  0  0  0
    3.6804   -3.6462    0.0000 H   0  0  0  0  0  0  0  0  0  0  0  0
    3.7898   -4.4279    0.0000 H   0  0  0  0  0  0  0  0  0  0  0  0
    5.6673   -2.3427    0.0000 H   0  0  0  0  0  0  0  0  0  0  0  0
    6.8759    1.7155    0.0000 H   0  0  0  0  0  0  0  0  0  0  0  0
    8.2788   -0.7145    0.0000 H   0  0  0  0  0  0  0  0  0  0  0  0
    4.9936   -5.5119    0.0000 H   0  0  0  0  0  0  0  0  0  0  0  0
    6.8712   -3.4267    0.0000 H   0  0  0  0  0  0  0  0  0  0  0  0
    6.5344   -5.0113    0.0000 H   0  0  0  0  0  0  0  0  0  0  0  0
   10.5478    1.5955    0.0000 H   0  0  0  0  0  0  0  0  0  0  0  0
   10.0109    2.5255    0.0000 H   0  0  0  0  0  0  0  0  0  0  0  0
    9.6818    4.7155    0.0000 H   0  0  0  0  0  0  0  0  0  0  0  0
    6.8759    4.7155    0.0000 H   0  0  0  0  0  0  0  0  0  0  0  0
    8.2788    5.5255    0.0000 H   0  0  0  0  0  0  0  0  0  0  0  0
  1 15  1  0  0  0  0
  1 16  1  0  0  0  0
  2 16  2  0  0  0  0
  3  8  1  0  0  0  0
  3 11  1  0  0  0  0
  3 16  1  0  0  0  0
  4 24  2  0  0  0  0
  4 28  1  0  0  0  0
  5 28  1  0  0  0  0
  5 58  1  0  0  0  0
  5 59  1  0  0  0  0
  6 30  2  0  0  0  0
  6 31  1  0  0  0  0
  7 30  1  0  0  0  0
  7 32  2  0  0  0  0
  8  9  1  0  0  0  0
  8 10  1  0  0  0  0
  8 34  1  0  0  0  0
  9 13  1  0  0  0  0
  9 35  1  0  0  0  0
  9 36  1  0  0  0  0
 10 14  1  0  0  0  0
 10 37  1  0  0  0  0
 10 38  1  0  0  0  0
 11 15  1  0  0  0  0
 11 17  1  1  0  0  0
 11 39  1  0  0  0  0
 12 13  1  0  0  0  0
 12 14  1  0  0  0  0
 12 18  1  0  0  0  0
 12 40  1  0  0  0  0
 13 41  1  0  0  0  0
 13 42  1  0  0  0  0
 14 43  1  0  0  0  0
 14 44  1  0  0  0  0
 15 19  1  0  0  0  0
 15 20  1  0  0  0  0
 17 21  2  0  0  0  0
 17 22  1  0  0  0  0
 18 23  2  0  0  0  0
 18 24  1  0  0  0  0
 19 45  1  0  0  0  0
 19 46  1  0  0  0  0
 19 47  1  0  0  0  0
 20 48  1  0  0  0  0
 20 49  1  0  0  0  0
 20 50  1  0  0  0  0
 21 26  1  0  0  0  0
 21 51  1  0  0  0  0
 22 27  2  0  0  0  0
 22 52  1  0  0  0  0
 23 25  1  0  0  0  0
 23 53  1  0  0  0  0
 24 54  1  0  0  0  0
 25 28  2  0  0  0  0
 25 30  1  0  0  0  0
 26 29  2  0  0  0  0
 26 55  1  0  0  0  0
 27 29  1  0  0  0  0
 27 56  1  0  0  0  0
 29 57  1  0  0  0  0
 31 33  2  0  0  0  0
 31 60  1  0  0  0  0
 32 33  1  0  0  0  0
 32 61  1  0  0  0  0
 33 62  1  0  0  0  0
M  END
> <PUBCHEM_COMPOUND_CID>
71660496

> <PUBCHEM_COMPOUND_CANONICALIZED>
1

> <PUBCHEM_CACTVS_COMPLEXITY>
668

> <PUBCHEM_CACTVS_HBOND_ACCEPTOR>
6

> <PUBCHEM_CACTVS_HBOND_DONOR>
1

> <PUBCHEM_CACTVS_ROTATABLE_BOND>
4

> <PUBCHEM_CACTVS_SUBSKEYS>
AAADceB7sAAAAAAAAAAAAAAAAAAAAWAAAAA8eIEAAAAAAAAB8AAAHgAQAAAADWzBmwQ/uJdIFACoAjJnfACCgCkxAqAJ2CA4ZJiKKOLA2dGNJAhsxgPYyCeQwOAOgAAAAAAAAAAQAAAAAAAAAAAAAAAAAA==

> <PUBCHEM_IUPAC_OPENEYE_NAME>
(4S)-3-[4-(6-amino-5-pyrimidin-2-yl-3-pyridyl)cyclohexyl]-5,5-dimethyl-4-phenyl-oxazolidin-2-one

> <PUBCHEM_IUPAC_CAS_NAME>
(4S)-3-[4-[6-amino-5-(2-pyrimidinyl)-3-pyridinyl]cyclohexyl]-5,5-dimethyl-4-phenyl-2-oxazolidinone

> <PUBCHEM_IUPAC_NAME_MARKUP>
(4<I>S</I>)-3-[4-(6-amino-5-pyrimidin-2-ylpyridin-3-yl)cyclohexyl]-5,5-dimethyl-4-phenyl-1,3-oxazolidin-2-one

> <PUBCHEM_IUPAC_NAME>
(4S)-3-[4-(6-amino-5-pyrimidin-2-ylpyridin-3-yl)cyclohexyl]-5,5-dimethyl-4-phenyl-1,3-oxazolidin-2-one

> <PUBCHEM_IUPAC_SYSTEMATIC_NAME>
(4S)-3-[4-(6-azanyl-5-pyrimidin-2-yl-pyridin-3-yl)cyclohexyl]-5,5-dimethyl-4-phenyl-1,3-oxazolidin-2-one

> <PUBCHEM_IUPAC_TRADITIONAL_NAME>
(4S)-3-[4-[6-amino-5-(2-pyrimidyl)-3-pyridyl]cyclohexyl]-5,5-dimethyl-4-phenyl-oxazolidin-2-one

> <PUBCHEM_IUPAC_INCHI>
InChI=1S/C26H29N5O2/c1-26(2)22(18-7-4-3-5-8-18)31(25(32)33-26)20-11-9-17(10-12-20)19-15-21(23(27)30-16-19)24-28-13-6-14-29-24/h3-8,13-17,20,22H,9-12H2,1-2H3,(H2,27,30)/t17?,20?,22-/m0/s1

> <PUBCHEM_IUPAC_INCHIKEY>
QTAONPFQLNZKSD-QVHXHXEWSA-N

> <PUBCHEM_XLOGP3_AA>
3.6

> <PUBCHEM_EXACT_MASS>
443.23212518

> <PUBCHEM_MOLECULAR_FORMULA>
C26H29N5O2

> <PUBCHEM_MOLECULAR_WEIGHT>
443.5

> <PUBCHEM_OPENEYE_CAN_SMILES>
CC1(C(N(C(=O)O1)C2CCC(CC2)C3=CC(=C(N=C3)N)C4=NC=CC=N4)C5=CC=CC=C5)C

> <PUBCHEM_OPENEYE_ISO_SMILES>
CC1([C@@H](N(C(=O)O1)C2CCC(CC2)C3=CC(=C(N=C3)N)C4=NC=CC=N4)C5=CC=CC=C5)C

> <PUBCHEM_CACTVS_TPSA>
94.2

> <PUBCHEM_MONOISOTOPIC_WEIGHT>
443.23212518

> <PUBCHEM_TOTAL_CHARGE>
0

> <PUBCHEM_HEAVY_ATOM_COUNT>
33

> <PUBCHEM_ATOM_DEF_STEREO_COUNT>
1

> <PUBCHEM_ATOM_UDEF_STEREO_COUNT>
0

> <PUBCHEM_BOND_DEF_STEREO_COUNT>
0

> <PUBCHEM_BOND_UDEF_STEREO_COUNT>
0

> <PUBCHEM_ISOTOPIC_ATOM_COUNT>
0

> <PUBCHEM_COMPONENT_COUNT>
1

> <PUBCHEM_CACTVS_TAUTO_COUNT>
-1

> <PUBCHEM_COORDINATE_TYPE>
1
5
255

> <PUBCHEM_BONDANNOTATIONS>
11  17  5
17  21  8
17  22  8
18  23  8
18  24  8
21  26  8
22  27  8
23  25  8
25  28  8
26  29  8
27  29  8
31  33  8
32  33  8
4  24  8
4  28  8
6  30  8
6  31  8
7  30  8
7  32  8

$$$$
