9838959
  -OEChem-09292322512D

 44 47  0     0  0  0  0  0  0999 V2000
    4.6318    1.6131    0.0000 N   0  0  0  0  0  0  0  0  0  0  0  0
    4.6783   -2.6418    0.0000 N   0  0  0  0  0  0  0  0  0  0  0  0
    5.5833    1.9204    0.0000 C   0  0  0  0  0  0  0  0  0  0  0  0
    4.0454    2.4231    0.0000 C   0  0  0  0  0  0  0  0  0  0  0  0
    5.5851    2.9204    0.0000 C   0  0  0  0  0  0  0  0  0  0  0  0
    4.6346    3.2311    0.0000 C   0  0  0  0  0  0  0  0  0  0  0  0
    4.3211    0.6625    0.0000 C   0  0  0  0  0  0  0  0  0  0  0  0
    4.9889   -0.0818    0.0000 C   0  0  0  0  0  0  0  0  0  0  0  0
    4.6783   -1.0323    0.0000 C   0  0  0  0  0  0  0  0  0  0  0  0
    3.7320   -1.3370    0.0000 C   0  0  0  0  0  0  0  0  0  0  0  0
    5.2619   -1.8370    0.0000 C   0  0  0  0  0  0  0  0  0  0  0  0
    3.7320   -2.3370    0.0000 C   0  0  0  0  0  0  0  0  0  0  0  0
    6.2619   -1.8370    0.0000 C   0  0  0  0  0  0  0  0  0  0  0  0
    2.8660   -0.8370    0.0000 C   0  0  0  0  0  0  0  0  0  0  0  0
    2.8660   -2.8370    0.0000 C   0  0  0  0  0  0  0  0  0  0  0  0
    2.0000   -1.3370    0.0000 C   0  0  0  0  0  0  0  0  0  0  0  0
    2.0000   -2.3370    0.0000 C   0  0  0  0  0  0  0  0  0  0  0  0
    6.7619   -0.9710    0.0000 C   0  0  0  0  0  0  0  0  0  0  0  0
    6.7619   -2.7030    0.0000 C   0  0  0  0  0  0  0  0  0  0  0  0
    7.7619   -0.9710    0.0000 C   0  0  0  0  0  0  0  0  0  0  0  0
    7.7619   -2.7030    0.0000 C   0  0  0  0  0  0  0  0  0  0  0  0
    8.2619   -1.8370    0.0000 C   0  0  0  0  0  0  0  0  0  0  0  0
    5.7112    1.3138    0.0000 H   0  0  0  0  0  0  0  0  0  0  0  0
    6.2001    1.9842    0.0000 H   0  0  0  0  0  0  0  0  0  0  0  0
    3.5853    2.8387    0.0000 H   0  0  0  0  0  0  0  0  0  0  0  0
    3.5839    2.0090    0.0000 H   0  0  0  0  0  0  0  0  0  0  0  0
    6.2016    2.8545    0.0000 H   0  0  0  0  0  0  0  0  0  0  0  0
    5.7150    3.5266    0.0000 H   0  0  0  0  0  0  0  0  0  0  0  0
    4.8877    3.7970    0.0000 H   0  0  0  0  0  0  0  0  0  0  0  0
    4.0982    3.5420    0.0000 H   0  0  0  0  0  0  0  0  0  0  0  0
    3.7742    0.9545    0.0000 H   0  0  0  0  0  0  0  0  0  0  0  0
    3.9385    0.1746    0.0000 H   0  0  0  0  0  0  0  0  0  0  0  0
    5.5359   -0.3738    0.0000 H   0  0  0  0  0  0  0  0  0  0  0  0
    5.3715    0.4061    0.0000 H   0  0  0  0  0  0  0  0  0  0  0  0
    4.8709   -3.2311    0.0000 H   0  0  0  0  0  0  0  0  0  0  0  0
    2.8660   -0.2170    0.0000 H   0  0  0  0  0  0  0  0  0  0  0  0
    2.8660   -3.4570    0.0000 H   0  0  0  0  0  0  0  0  0  0  0  0
    1.4631   -1.0270    0.0000 H   0  0  0  0  0  0  0  0  0  0  0  0
    1.4631   -2.6470    0.0000 H   0  0  0  0  0  0  0  0  0  0  0  0
    6.4519   -0.4341    0.0000 H   0  0  0  0  0  0  0  0  0  0  0  0
    6.4519   -3.2400    0.0000 H   0  0  0  0  0  0  0  0  0  0  0  0
    8.0719   -0.4341    0.0000 H   0  0  0  0  0  0  0  0  0  0  0  0
    8.0719   -3.2400    0.0000 H   0  0  0  0  0  0  0  0  0  0  0  0
    8.8819   -1.8370    0.0000 H   0  0  0  0  0  0  0  0  0  0  0  0
  1  3  1  0  0  0  0
  1  4  1  0  0  0  0
  1  7  1  0  0  0  0
  2 11  1  0  0  0  0
  2 12  1  0  0  0  0
  2 35  1  0  0  0  0
  3  5  1  0  0  0  0
  3 23  1  0  0  0  0
  3 24  1  0  0  0  0
  4  6  1  0  0  0  0
  4 25  1  0  0  0  0
  4 26  1  0  0  0  0
  5  6  1  0  0  0  0
  5 27  1  0  0  0  0
  5 28  1  0  0  0  0
  6 29  1  0  0  0  0
  6 30  1  0  0  0  0
  7  8  1  0  0  0  0
  7 31  1  0  0  0  0
  7 32  1  0  0  0  0
  8  9  1  0  0  0  0
  8 33  1  0  0  0  0
  8 34  1  0  0  0  0
  9 10  1  0  0  0  0
  9 11  2  0  0  0  0
 10 12  1  0  0  0  0
 10 14  2  0  0  0  0
 11 13  1  0  0  0  0
 12 15  2  0  0  0  0
 13 18  2  0  0  0  0
 13 19  1  0  0  0  0
 14 16  1  0  0  0  0
 14 36  1  0  0  0  0
 15 17  1  0  0  0  0
 15 37  1  0  0  0  0
 16 17  2  0  0  0  0
 16 38  1  0  0  0  0
 17 39  1  0  0  0  0
 18 20  1  0  0  0  0
 18 40  1  0  0  0  0
 19 21  2  0  0  0  0
 19 41  1  0  0  0  0
 20 22  2  0  0  0  0
 20 42  1  0  0  0  0
 21 22  1  0  0  0  0
 21 43  1  0  0  0  0
 22 44  1  0  0  0  0
M  END
> <PUBCHEM_COMPOUND_CID>
9838959

> <PUBCHEM_COMPOUND_CANONICALIZED>
1

> <PUBCHEM_CACTVS_COMPLEXITY>
344

> <PUBCHEM_CACTVS_HBOND_ACCEPTOR>
1

> <PUBCHEM_CACTVS_HBOND_DONOR>
1

> <PUBCHEM_CACTVS_ROTATABLE_BOND>
4

> <PUBCHEM_CACTVS_SUBSKEYS>
AAADceB7AAAAAAAAAAAAAAAAAAAAAWLAAAAwYAAAAAAAAFgB9AAAHAAQAAAADAjBHgQwwPPJkACgAyRiRACCgCAhAiAImSA4ZJgIIOLAkZGEIAhgkADIyAcQgMAOgAAAAAACAAAAAAAAAAQAAAAAAAAAAA==

> <PUBCHEM_IUPAC_OPENEYE_NAME>
2-phenyl-3-(2-pyrrolidin-1-ylethyl)-1H-indole

> <PUBCHEM_IUPAC_CAS_NAME>
2-phenyl-3-[2-(1-pyrrolidinyl)ethyl]-1H-indole

> <PUBCHEM_IUPAC_NAME_MARKUP>
2-phenyl-3-(2-pyrrolidin-1-ylethyl)-1<I>H</I>-indole

> <PUBCHEM_IUPAC_NAME>
2-phenyl-3-(2-pyrrolidin-1-ylethyl)-1H-indole

> <PUBCHEM_IUPAC_SYSTEMATIC_NAME>
2-phenyl-3-(2-pyrrolidin-1-ylethyl)-1H-indole

> <PUBCHEM_IUPAC_TRADITIONAL_NAME>
2-phenyl-3-(2-pyrrolidinoethyl)-1H-indole

> <PUBCHEM_IUPAC_INCHI>
InChI=1S/C20H22N2/c1-2-8-16(9-3-1)20-18(12-15-22-13-6-7-14-22)17-10-4-5-11-19(17)21-20/h1-5,8-11,21H,6-7,12-15H2

> <PUBCHEM_IUPAC_INCHIKEY>
QGQVKTDTPMQADW-UHFFFAOYSA-N

> <PUBCHEM_XLOGP3_AA>
4.5

> <PUBCHEM_EXACT_MASS>
290.178298710

> <PUBCHEM_MOLECULAR_FORMULA>
C20H22N2

> <PUBCHEM_MOLECULAR_WEIGHT>
290.4

> <PUBCHEM_OPENEYE_CAN_SMILES>
C1CCN(C1)CCC2=C(NC3=CC=CC=C32)C4=CC=CC=C4

> <PUBCHEM_OPENEYE_ISO_SMILES>
C1CCN(C1)CCC2=C(NC3=CC=CC=C32)C4=CC=CC=C4

> <PUBCHEM_CACTVS_TPSA>
19

> <PUBCHEM_MONOISOTOPIC_WEIGHT>
290.178298710

> <PUBCHEM_TOTAL_CHARGE>
0

> <PUBCHEM_HEAVY_ATOM_COUNT>
22

> <PUBCHEM_ATOM_DEF_STEREO_COUNT>
0

> <PUBCHEM_ATOM_UDEF_STEREO_COUNT>
0

> <PUBCHEM_BOND_DEF_STEREO_COUNT>
0

> <PUBCHEM_BOND_UDEF_STEREO_COUNT>
0

> <PUBCHEM_ISOTOPIC_ATOM_COUNT>
0

> <PUBCHEM_COMPONENT_COUNT>
1

> <PUBCHEM_CACTVS_TAUTO_COUNT>
-1

> <PUBCHEM_COORDINATE_TYPE>
1
5
255

> <PUBCHEM_BONDANNOTATIONS>
10  12  8
10  14  8
12  15  8
13  18  8
13  19  8
14  16  8
15  17  8
16  17  8
18  20  8
19  21  8
2  11  8
2  12  8
20  22  8
21  22  8
9  10  8
9  11  8

$$$$
