90469187
  -OEChem-09292322432D

 51 55  0     0  0  0  0  0  0999 V2000
    3.5998    1.4928    0.0000 S   0  0  0  0  0  0  0  0  0  0  0  0
    2.6493    1.1821    0.0000 O   0  0  0  0  0  0  0  0  0  0  0  0
    4.5504    1.8035    0.0000 O   0  0  0  0  0  0  0  0  0  0  0  0
    5.7227   -2.2624    0.0000 N   0  0  0  0  0  0  0  0  0  0  0  0
    3.9105    0.5423    0.0000 N   0  0  0  0  0  0  0  0  0  0  0  0
    5.7227   -4.2624    0.0000 N   0  0  0  0  0  0  0  0  0  0  0  0
    6.5888   -0.7624    0.0000 N   0  0  0  0  0  0  0  0  0  0  0  0
    4.8567   -2.7624    0.0000 C   0  0  0  0  0  0  0  0  0  0  0  0
    6.5888   -2.7624    0.0000 C   0  0  0  0  0  0  0  0  0  0  0  0
    5.7227   -1.2624    0.0000 C   0  0  0  0  0  0  0  0  0  0  0  0
    4.8567   -0.7624    0.0000 C   0  0  0  0  0  0  0  0  0  0  0  0
    4.8567    0.2376    0.0000 C   0  0  0  0  0  0  0  0  0  0  0  0
    4.8567   -3.7624    0.0000 C   0  0  0  0  0  0  0  0  0  0  0  0
    6.5888   -3.7624    0.0000 C   0  0  0  0  0  0  0  0  0  0  0  0
    5.7227    0.7376    0.0000 C   0  0  0  0  0  0  0  0  0  0  0  0
    3.9105   -1.0672    0.0000 C   0  0  0  0  0  0  0  0  0  0  0  0
    6.5888    0.2376    0.0000 C   0  0  0  0  0  0  0  0  0  0  0  0
    3.3269   -0.2624    0.0000 C   0  0  0  0  0  0  0  0  0  0  0  0
    3.2892    2.4433    0.0000 C   0  0  0  0  0  0  0  0  0  0  0  0
    5.7067    1.7791    0.0000 C   0  0  0  0  0  0  0  0  0  0  0  0
    7.4988    0.7444    0.0000 C   0  0  0  0  0  0  0  0  0  0  0  0
    6.6047    2.3068    0.0000 C   0  0  0  0  0  0  0  0  0  0  0  0
    7.5068    1.7860    0.0000 C   0  0  0  0  0  0  0  0  0  0  0  0
    3.9570    3.1876    0.0000 C   0  0  0  0  0  0  0  0  0  0  0  0
    2.3107    2.6495    0.0000 C   0  0  0  0  0  0  0  0  0  0  0  0
    3.6464    4.1382    0.0000 C   0  0  0  0  0  0  0  0  0  0  0  0
    2.0000    3.6001    0.0000 C   0  0  0  0  0  0  0  0  0  0  0  0
    2.6678    4.3444    0.0000 C   0  0  0  0  0  0  0  0  0  0  0  0
    4.3142    4.8825    0.0000 C   0  0  0  0  0  0  0  0  0  0  0  0
    4.6447   -2.1798    0.0000 H   0  0  0  0  0  0  0  0  0  0  0  0
    4.2461   -2.8701    0.0000 H   0  0  0  0  0  0  0  0  0  0  0  0
    7.1993   -2.8701    0.0000 H   0  0  0  0  0  0  0  0  0  0  0  0
    6.8008   -2.1798    0.0000 H   0  0  0  0  0  0  0  0  0  0  0  0
    4.2461   -3.6548    0.0000 H   0  0  0  0  0  0  0  0  0  0  0  0
    4.6447   -4.3451    0.0000 H   0  0  0  0  0  0  0  0  0  0  0  0
    6.8008   -4.3451    0.0000 H   0  0  0  0  0  0  0  0  0  0  0  0
    7.1993   -3.6548    0.0000 H   0  0  0  0  0  0  0  0  0  0  0  0
    5.7227   -4.8825    0.0000 H   0  0  0  0  0  0  0  0  0  0  0  0
    3.7179   -1.6565    0.0000 H   0  0  0  0  0  0  0  0  0  0  0  0
    2.7069   -0.2624    0.0000 H   0  0  0  0  0  0  0  0  0  0  0  0
    5.1662    2.0828    0.0000 H   0  0  0  0  0  0  0  0  0  0  0  0
    8.0321    0.4282    0.0000 H   0  0  0  0  0  0  0  0  0  0  0  0
    6.6023    2.9268    0.0000 H   0  0  0  0  0  0  0  0  0  0  0  0
    8.0449    2.0939    0.0000 H   0  0  0  0  0  0  0  0  0  0  0  0
    4.5637    3.0598    0.0000 H   0  0  0  0  0  0  0  0  0  0  0  0
    1.8966    2.1881    0.0000 H   0  0  0  0  0  0  0  0  0  0  0  0
    1.3933    3.7279    0.0000 H   0  0  0  0  0  0  0  0  0  0  0  0
    2.4752    4.9337    0.0000 H   0  0  0  0  0  0  0  0  0  0  0  0
    4.7757    4.4684    0.0000 H   0  0  0  0  0  0  0  0  0  0  0  0
    4.7283    5.3439    0.0000 H   0  0  0  0  0  0  0  0  0  0  0  0
    3.8527    5.2965    0.0000 H   0  0  0  0  0  0  0  0  0  0  0  0
  1  2  2  0  0  0  0
  1  3  2  0  0  0  0
  1  5  1  0  0  0  0
  1 19  1  0  0  0  0
  4  8  1  0  0  0  0
  4  9  1  0  0  0  0
  4 10  1  0  0  0  0
  5 12  1  0  0  0  0
  5 18  1  0  0  0  0
  6 13  1  0  0  0  0
  6 14  1  0  0  0  0
  6 38  1  0  0  0  0
  7 10  2  0  0  0  0
  7 17  1  0  0  0  0
  8 13  1  0  0  0  0
  8 30  1  0  0  0  0
  8 31  1  0  0  0  0
  9 14  1  0  0  0  0
  9 32  1  0  0  0  0
  9 33  1  0  0  0  0
 10 11  1  0  0  0  0
 11 12  2  0  0  0  0
 11 16  1  0  0  0  0
 12 15  1  0  0  0  0
 13 34  1  0  0  0  0
 13 35  1  0  0  0  0
 14 36  1  0  0  0  0
 14 37  1  0  0  0  0
 15 17  1  0  0  0  0
 15 20  2  0  0  0  0
 16 18  2  0  0  0  0
 16 39  1  0  0  0  0
 17 21  2  0  0  0  0
 18 40  1  0  0  0  0
 19 24  1  0  0  0  0
 19 25  2  0  0  0  0
 20 22  1  0  0  0  0
 20 41  1  0  0  0  0
 21 23  1  0  0  0  0
 21 42  1  0  0  0  0
 22 23  2  0  0  0  0
 22 43  1  0  0  0  0
 23 44  1  0  0  0  0
 24 26  2  0  0  0  0
 24 45  1  0  0  0  0
 25 27  1  0  0  0  0
 25 46  1  0  0  0  0
 26 28  1  0  0  0  0
 26 29  1  0  0  0  0
 27 28  2  0  0  0  0
 27 47  1  0  0  0  0
 28 48  1  0  0  0  0
 29 49  1  0  0  0  0
 29 50  1  0  0  0  0
 29 51  1  0  0  0  0
M  END
> <PUBCHEM_COMPOUND_CID>
90469187

> <PUBCHEM_COMPOUND_CANONICALIZED>
1

> <PUBCHEM_CACTVS_COMPLEXITY>
675

> <PUBCHEM_CACTVS_HBOND_ACCEPTOR>
5

> <PUBCHEM_CACTVS_HBOND_DONOR>
1

> <PUBCHEM_CACTVS_ROTATABLE_BOND>
3

> <PUBCHEM_CACTVS_SUBSKEYS>
AAADceB7sABAAAAAAAAAAAAAAAAAAWAAAAA8eIEAAAAAAFix/gAAHAQQQAAADAjBXgQ/8fPIEAKgAzZnZHDCgDkxAiAJ2Lg4ZJiIYOLA2dGUJAhokALIyCcQgMAOAAAAgAACAAAAAAEAAAQAAAAAAAAAAA==

> <PUBCHEM_IUPAC_OPENEYE_NAME>
1-(m-tolylsulfonyl)-4-piperazin-1-yl-pyrrolo[3,2-c]quinoline

> <PUBCHEM_IUPAC_CAS_NAME>
1-(3-methylphenyl)sulfonyl-4-(1-piperazinyl)pyrrolo[3,2-c]quinoline

> <PUBCHEM_IUPAC_NAME_MARKUP>
1-(3-methylphenyl)sulfonyl-4-piperazin-1-ylpyrrolo[3,2-c]quinoline

> <PUBCHEM_IUPAC_NAME>
1-(3-methylphenyl)sulfonyl-4-piperazin-1-ylpyrrolo[3,2-c]quinoline

> <PUBCHEM_IUPAC_SYSTEMATIC_NAME>
1-(3-methylphenyl)sulfonyl-4-piperazin-1-yl-pyrrolo[3,2-c]quinoline

> <PUBCHEM_IUPAC_TRADITIONAL_NAME>
1-(m-tolylsulfonyl)-4-piperazino-pyrrolo[3,2-c]quinoline

> <PUBCHEM_IUPAC_INCHI>
InChI=1S/C22H22N4O2S/c1-16-5-4-6-17(15-16)29(27,28)26-12-9-19-21(26)18-7-2-3-8-20(18)24-22(19)25-13-10-23-11-14-25/h2-9,12,15,23H,10-11,13-14H2,1H3

> <PUBCHEM_IUPAC_INCHIKEY>
IPEQZSDWFQRQIF-UHFFFAOYSA-N

> <PUBCHEM_XLOGP3_AA>
3.7

> <PUBCHEM_EXACT_MASS>
406.14634713

> <PUBCHEM_MOLECULAR_FORMULA>
C22H22N4O2S

> <PUBCHEM_MOLECULAR_WEIGHT>
406.5

> <PUBCHEM_OPENEYE_CAN_SMILES>
CC1=CC(=CC=C1)S(=O)(=O)N2C=CC3=C2C4=CC=CC=C4N=C3N5CCNCC5

> <PUBCHEM_OPENEYE_ISO_SMILES>
CC1=CC(=CC=C1)S(=O)(=O)N2C=CC3=C2C4=CC=CC=C4N=C3N5CCNCC5

> <PUBCHEM_CACTVS_TPSA>
75.6

> <PUBCHEM_MONOISOTOPIC_WEIGHT>
406.14634713

> <PUBCHEM_TOTAL_CHARGE>
0

> <PUBCHEM_HEAVY_ATOM_COUNT>
29

> <PUBCHEM_ATOM_DEF_STEREO_COUNT>
0

> <PUBCHEM_ATOM_UDEF_STEREO_COUNT>
0

> <PUBCHEM_BOND_DEF_STEREO_COUNT>
0

> <PUBCHEM_BOND_UDEF_STEREO_COUNT>
0

> <PUBCHEM_ISOTOPIC_ATOM_COUNT>
0

> <PUBCHEM_COMPONENT_COUNT>
1

> <PUBCHEM_CACTVS_TAUTO_COUNT>
-1

> <PUBCHEM_COORDINATE_TYPE>
1
5
255

> <PUBCHEM_BONDANNOTATIONS>
10  11  8
11  12  8
11  16  8
12  15  8
15  17  8
15  20  8
16  18  8
17  21  8
19  24  8
19  25  8
20  22  8
21  23  8
22  23  8
24  26  8
25  27  8
26  28  8
27  28  8
5  12  8
5  18  8
7  10  8
7  17  8

$$$$
