25067564
  -OEChem-09292322292D

 48 52  0     1  0  0  0  0  0999 V2000
    8.1089    0.1219    0.0000 S   0  0  0  0  0  0  0  0  0  0  0  0
    7.1089    0.1219    0.0000 O   0  0  0  0  0  0  0  0  0  0  0  0
    9.1089    0.1219    0.0000 O   0  0  0  0  0  0  0  0  0  0  0  0
    4.6793   -1.7936    0.0000 N   0  0  3  0  0  0  0  0  0  0  0  0
    2.6062   -0.2450    0.0000 N   0  0  0  0  0  0  0  0  0  0  0  0
    8.9136   -1.4617    0.0000 N   0  0  0  0  0  0  0  0  0  0  0  0
    8.6089   -2.4079    0.0000 N   0  0  0  0  0  0  0  0  0  0  0  0
    3.2766   -0.9870    0.0000 C   0  0  1  0  0  0  0  0  0  0  0  0
    4.2710   -0.8807    0.0000 C   0  0  0  0  0  0  0  0  0  0  0  0
    3.0704   -1.9655    0.0000 C   0  0  0  0  0  0  0  0  0  0  0  0
    3.9373   -2.4640    0.0000 C   0  0  0  0  0  0  0  0  0  0  0  0
    5.6578   -1.9998    0.0000 C   0  0  0  0  0  0  0  0  0  0  0  0
    6.3257   -1.2555    0.0000 C   0  0  0  0  0  0  0  0  0  0  0  0
    7.3042   -1.4617    0.0000 C   0  0  0  0  0  0  0  0  0  0  0  0
    5.9685   -2.9503    0.0000 C   0  0  0  0  0  0  0  0  0  0  0  0
    8.1089   -0.8781    0.0000 C   0  0  0  0  0  0  0  0  0  0  0  0
    7.6148   -2.4122    0.0000 C   0  0  0  0  0  0  0  0  0  0  0  0
    6.9470   -3.1566    0.0000 C   0  0  0  0  0  0  0  0  0  0  0  0
    8.1089    1.1219    0.0000 C   0  0  0  0  0  0  0  0  0  0  0  0
    8.9749    1.6219    0.0000 C   0  0  0  0  0  0  0  0  0  0  0  0
    8.9749    2.6219    0.0000 C   0  0  0  0  0  0  0  0  0  0  0  0
    7.2429    1.6219    0.0000 C   0  0  0  0  0  0  0  0  0  0  0  0
    9.8688    1.0872    0.0000 C   0  0  0  0  0  0  0  0  0  0  0  0
    8.1089    3.1219    0.0000 C   0  0  0  0  0  0  0  0  0  0  0  0
    7.2429    2.6219    0.0000 C   0  0  0  0  0  0  0  0  0  0  0  0
    9.8688    3.1566    0.0000 C   0  0  0  0  0  0  0  0  0  0  0  0
   10.7749    1.6011    0.0000 C   0  0  0  0  0  0  0  0  0  0  0  0
   10.7749    2.6427    0.0000 C   0  0  0  0  0  0  0  0  0  0  0  0
    2.6780   -1.1485    0.0000 H   0  0  0  0  0  0  0  0  0  0  0  0
    4.8603   -0.6881    0.0000 H   0  0  0  0  0  0  0  0  0  0  0  0
    4.1410   -0.2745    0.0000 H   0  0  0  0  0  0  0  0  0  0  0  0
    2.4804   -1.7749    0.0000 H   0  0  0  0  0  0  0  0  0  0  0  0
    2.8192   -2.5323    0.0000 H   0  0  0  0  0  0  0  0  0  0  0  0
    3.5738   -2.9662    0.0000 H   0  0  0  0  0  0  0  0  0  0  0  0
    4.3988   -2.8781    0.0000 H   0  0  0  0  0  0  0  0  0  0  0  0
    2.0000   -0.3750    0.0000 H   0  0  0  0  0  0  0  0  0  0  0  0
    2.7968    0.3450    0.0000 H   0  0  0  0  0  0  0  0  0  0  0  0
    6.1330   -0.6662    0.0000 H   0  0  0  0  0  0  0  0  0  0  0  0
    5.5544   -3.4118    0.0000 H   0  0  0  0  0  0  0  0  0  0  0  0
    7.1396   -3.7459    0.0000 H   0  0  0  0  0  0  0  0  0  0  0  0
    9.5029   -1.2691    0.0000 H   0  0  0  0  0  0  0  0  0  0  0  0
    6.7059    1.3119    0.0000 H   0  0  0  0  0  0  0  0  0  0  0  0
    9.8617    0.4673    0.0000 H   0  0  0  0  0  0  0  0  0  0  0  0
    8.1089    3.7419    0.0000 H   0  0  0  0  0  0  0  0  0  0  0  0
    6.7059    2.9319    0.0000 H   0  0  0  0  0  0  0  0  0  0  0  0
    9.8617    3.7765    0.0000 H   0  0  0  0  0  0  0  0  0  0  0  0
   11.3107    1.2890    0.0000 H   0  0  0  0  0  0  0  0  0  0  0  0
   11.3107    2.9548    0.0000 H   0  0  0  0  0  0  0  0  0  0  0  0
  1  2  2  0  0  0  0
  1  3  2  0  0  0  0
  1 16  1  0  0  0  0
  1 19  1  0  0  0  0
  4  9  1  0  0  0  0
  4 11  1  0  0  0  0
  4 12  1  0  0  0  0
  8  5  1  1  0  0  0
  5 36  1  0  0  0  0
  5 37  1  0  0  0  0
  6  7  1  0  0  0  0
  6 16  1  0  0  0  0
  6 41  1  0  0  0  0
  7 17  2  0  0  0  0
  8  9  1  0  0  0  0
  8 10  1  0  0  0  0
  8 29  1  0  0  0  0
  9 30  1  0  0  0  0
  9 31  1  0  0  0  0
 10 11  1  0  0  0  0
 10 32  1  0  0  0  0
 10 33  1  0  0  0  0
 11 34  1  0  0  0  0
 11 35  1  0  0  0  0
 12 13  2  0  0  0  0
 12 15  1  0  0  0  0
 13 14  1  0  0  0  0
 13 38  1  0  0  0  0
 14 16  2  0  0  0  0
 14 17  1  0  0  0  0
 15 18  2  0  0  0  0
 15 39  1  0  0  0  0
 17 18  1  0  0  0  0
 18 40  1  0  0  0  0
 19 20  1  0  0  0  0
 19 22  2  0  0  0  0
 20 21  1  0  0  0  0
 20 23  2  0  0  0  0
 21 24  1  0  0  0  0
 21 26  2  0  0  0  0
 22 25  1  0  0  0  0
 22 42  1  0  0  0  0
 23 27  1  0  0  0  0
 23 43  1  0  0  0  0
 24 25  2  0  0  0  0
 24 44  1  0  0  0  0
 25 45  1  0  0  0  0
 26 28  1  0  0  0  0
 26 46  1  0  0  0  0
 27 28  2  0  0  0  0
 27 47  1  0  0  0  0
 28 48  1  0  0  0  0
M  END
> <PUBCHEM_COMPOUND_CID>
25067564

> <PUBCHEM_COMPOUND_CANONICALIZED>
1

> <PUBCHEM_CACTVS_COMPLEXITY>
666

> <PUBCHEM_CACTVS_HBOND_ACCEPTOR>
5

> <PUBCHEM_CACTVS_HBOND_DONOR>
2

> <PUBCHEM_CACTVS_ROTATABLE_BOND>
3

> <PUBCHEM_CACTVS_SUBSKEYS>
AAADceB7sABAAAAAAAAAAAAAAAAAAWLAAAAwYMAAAAAAAFjB9AAAHAQYAAAADCjBXgQwwfNjAAqiAyRiQHDaBgBhChAYubg4ZJgIYKLg0dGUpAxgmADoyAcQgIAOgACAwAAWAAAAAQGAACwAAAAAAAAAAA==

> <PUBCHEM_IUPAC_OPENEYE_NAME>
(3R)-1-[3-(1-naphthylsulfonyl)-2H-indazol-5-yl]pyrrolidin-3-amine

> <PUBCHEM_IUPAC_CAS_NAME>
(3R)-1-[3-(1-naphthalenylsulfonyl)-2H-indazol-5-yl]-3-pyrrolidinamine

> <PUBCHEM_IUPAC_NAME_MARKUP>
(3<I>R</I>)-1-(3-naphthalen-1-ylsulfonyl-2<I>H</I>-indazol-5-yl)pyrrolidin-3-amine

> <PUBCHEM_IUPAC_NAME>
(3R)-1-(3-naphthalen-1-ylsulfonyl-2H-indazol-5-yl)pyrrolidin-3-amine

> <PUBCHEM_IUPAC_SYSTEMATIC_NAME>
(3R)-1-(3-naphthalen-1-ylsulfonyl-2H-indazol-5-yl)pyrrolidin-3-amine

> <PUBCHEM_IUPAC_TRADITIONAL_NAME>
[(3R)-1-[3-(1-naphthylsulfonyl)-2H-indazol-5-yl]pyrrolidin-3-yl]amine

> <PUBCHEM_IUPAC_INCHI>
InChI=1S/C21H20N4O2S/c22-15-10-11-25(13-15)16-8-9-19-18(12-16)21(24-23-19)28(26,27)20-7-3-5-14-4-1-2-6-17(14)20/h1-9,12,15H,10-11,13,22H2,(H,23,24)/t15-/m1/s1

> <PUBCHEM_IUPAC_INCHIKEY>
OPTAOWZLDMSBKX-OAHLLOKOSA-N

> <PUBCHEM_XLOGP3_AA>
3.3

> <PUBCHEM_EXACT_MASS>
392.13069707

> <PUBCHEM_MOLECULAR_FORMULA>
C21H20N4O2S

> <PUBCHEM_MOLECULAR_WEIGHT>
392.5

> <PUBCHEM_OPENEYE_CAN_SMILES>
C1CN(CC1N)C2=CC3=C(NN=C3C=C2)S(=O)(=O)C4=CC=CC5=CC=CC=C54

> <PUBCHEM_OPENEYE_ISO_SMILES>
C1CN(C[C@@H]1N)C2=CC3=C(NN=C3C=C2)S(=O)(=O)C4=CC=CC5=CC=CC=C54

> <PUBCHEM_CACTVS_TPSA>
101

> <PUBCHEM_MONOISOTOPIC_WEIGHT>
392.13069707

> <PUBCHEM_TOTAL_CHARGE>
0

> <PUBCHEM_HEAVY_ATOM_COUNT>
28

> <PUBCHEM_ATOM_DEF_STEREO_COUNT>
1

> <PUBCHEM_ATOM_UDEF_STEREO_COUNT>
0

> <PUBCHEM_BOND_DEF_STEREO_COUNT>
0

> <PUBCHEM_BOND_UDEF_STEREO_COUNT>
0

> <PUBCHEM_ISOTOPIC_ATOM_COUNT>
0

> <PUBCHEM_COMPONENT_COUNT>
1

> <PUBCHEM_CACTVS_TAUTO_COUNT>
-1

> <PUBCHEM_COORDINATE_TYPE>
1
5
255

> <PUBCHEM_BONDANNOTATIONS>
12  13  8
12  15  8
13  14  8
14  16  8
14  17  8
15  18  8
17  18  8
19  20  8
19  22  8
20  21  8
20  23  8
21  24  8
21  26  8
22  25  8
23  27  8
24  25  8
26  28  8
27  28  8
8  5  5
6  16  8
6  7  8
7  17  8

$$$$
