71541080
  -OEChem-09292322052D

 41 43  0     1  0  0  0  0  0999 V2000
    4.1087   -2.8382    0.0000 S   0  0  0  0  0  0  0  0  0  0  0  0
    7.8262    1.7461    0.0000 O   0  0  0  0  0  0  0  0  0  0  0  0
    5.8262    1.7461    0.0000 N   0  0  3  0  0  0  0  0  0  0  0  0
    7.8262    3.4782    0.0000 N   0  0  0  0  0  0  0  0  0  0  0  0
    2.7149   -2.0334    0.0000 N   0  0  0  0  0  0  0  0  0  0  0  0
    2.6200   -3.8072    0.0000 N   0  0  0  0  0  0  0  0  0  0  0  0
    6.3798    0.9365    0.0000 C   0  0  0  0  0  0  0  0  0  0  0  0
    4.8483    1.8207    0.0000 C   0  0  0  0  0  0  0  0  0  0  0  0
    6.0945   -0.0019    0.0000 C   0  0  0  0  0  0  0  0  0  0  0  0
    4.1783    1.1044    0.0000 C   0  0  0  0  0  0  0  0  0  0  0  0
    5.1840   -0.3664    0.0000 C   0  0  0  0  0  0  0  0  0  0  0  0
    4.3179    0.1336    0.0000 C   0  0  0  0  0  0  0  0  0  0  0  0
    6.3262    2.6121    0.0000 C   0  0  0  0  0  0  0  0  0  0  0  0
    5.1840   -1.3664    0.0000 C   0  0  0  0  0  0  0  0  0  0  0  0
    3.4519   -0.3664    0.0000 C   0  0  0  0  0  0  0  0  0  0  0  0
    4.3179   -1.8664    0.0000 C   0  0  0  0  0  0  0  0  0  0  0  0
    3.4519   -1.3664    0.0000 C   0  0  0  0  0  0  0  0  0  0  0  0
    7.3262    2.6121    0.0000 C   0  0  0  0  0  0  0  0  0  0  0  0
    3.1200   -2.9412    0.0000 C   0  0  0  0  0  0  0  0  0  0  0  0
    8.8262    3.4782    0.0000 C   0  0  0  0  0  0  0  0  0  0  0  0
    7.3262    4.3442    0.0000 C   0  0  0  0  0  0  0  0  0  0  0  0
    6.9177    0.6282    0.0000 H   0  0  0  0  0  0  0  0  0  0  0  0
    6.8005    1.3919    0.0000 H   0  0  0  0  0  0  0  0  0  0  0  0
    5.0324    2.4128    0.0000 H   0  0  0  0  0  0  0  0  0  0  0  0
    4.3123    2.1324    0.0000 H   0  0  0  0  0  0  0  0  0  0  0  0
    6.1905   -0.6144    0.0000 H   0  0  0  0  0  0  0  0  0  0  0  0
    6.7130   -0.0452    0.0000 H   0  0  0  0  0  0  0  0  0  0  0  0
    3.8316    1.6184    0.0000 H   0  0  0  0  0  0  0  0  0  0  0  0
    3.5998    0.8813    0.0000 H   0  0  0  0  0  0  0  0  0  0  0  0
    6.4339    3.2227    0.0000 H   0  0  0  0  0  0  0  0  0  0  0  0
    5.7436    2.8242    0.0000 H   0  0  0  0  0  0  0  0  0  0  0  0
    5.7209   -1.6764    0.0000 H   0  0  0  0  0  0  0  0  0  0  0  0
    2.9150   -0.0564    0.0000 H   0  0  0  0  0  0  0  0  0  0  0  0
    8.8262    2.8582    0.0000 H   0  0  0  0  0  0  0  0  0  0  0  0
    9.4462    3.4782    0.0000 H   0  0  0  0  0  0  0  0  0  0  0  0
    8.8262    4.0982    0.0000 H   0  0  0  0  0  0  0  0  0  0  0  0
    7.8632    4.6542    0.0000 H   0  0  0  0  0  0  0  0  0  0  0  0
    7.0162    4.8811    0.0000 H   0  0  0  0  0  0  0  0  0  0  0  0
    6.7893    4.0342    0.0000 H   0  0  0  0  0  0  0  0  0  0  0  0
    2.0000   -3.8072    0.0000 H   0  0  0  0  0  0  0  0  0  0  0  0
    2.9300   -4.3442    0.0000 H   0  0  0  0  0  0  0  0  0  0  0  0
  1 16  1  0  0  0  0
  1 19  1  0  0  0  0
  2 18  2  0  0  0  0
  3  7  1  0  0  0  0
  3  8  1  0  0  0  0
  3 13  1  0  0  0  0
  4 18  1  0  0  0  0
  4 20  1  0  0  0  0
  4 21  1  0  0  0  0
  5 17  1  0  0  0  0
  5 19  2  0  0  0  0
  6 19  1  0  0  0  0
  6 40  1  0  0  0  0
  6 41  1  0  0  0  0
  7  9  1  0  0  0  0
  7 22  1  0  0  0  0
  7 23  1  0  0  0  0
  8 10  1  0  0  0  0
  8 24  1  0  0  0  0
  8 25  1  0  0  0  0
  9 11  1  0  0  0  0
  9 26  1  0  0  0  0
  9 27  1  0  0  0  0
 10 12  1  0  0  0  0
 10 28  1  0  0  0  0
 10 29  1  0  0  0  0
 11 12  1  0  0  0  0
 11 14  2  0  0  0  0
 12 15  2  0  0  0  0
 13 18  1  0  0  0  0
 13 30  1  0  0  0  0
 13 31  1  0  0  0  0
 14 16  1  0  0  0  0
 14 32  1  0  0  0  0
 15 17  1  0  0  0  0
 15 33  1  0  0  0  0
 16 17  2  0  0  0  0
 20 34  1  0  0  0  0
 20 35  1  0  0  0  0
 20 36  1  0  0  0  0
 21 37  1  0  0  0  0
 21 38  1  0  0  0  0
 21 39  1  0  0  0  0
M  END
> <PUBCHEM_COMPOUND_CID>
71541080

> <PUBCHEM_COMPOUND_CANONICALIZED>
1

> <PUBCHEM_CACTVS_COMPLEXITY>
392

> <PUBCHEM_CACTVS_HBOND_ACCEPTOR>
5

> <PUBCHEM_CACTVS_HBOND_DONOR>
1

> <PUBCHEM_CACTVS_ROTATABLE_BOND>
2

> <PUBCHEM_CACTVS_SUBSKEYS>
AAADceBzoABAAAAAAAAAAAAAAAAAAWAAAAAwAAAABYAAAFgB8AAAHgQQAAAADAjB3gQz0bNIEAisAyVydACD8KlhCjlAmDy4ZJiIYKLgkbGUIAhgggLIyCcQgIAOmAAAwAAQAQAwAAGAACACAAAAAAAAAA==

> <PUBCHEM_IUPAC_OPENEYE_NAME>
2-(2-amino-5,6,8,9-tetrahydrothiazolo[4,5-h][3]benzazepin-7-yl)-N,N-dimethyl-acetamide

> <PUBCHEM_IUPAC_CAS_NAME>
2-(2-amino-5,6,8,9-tetrahydrothiazolo[4,5-h][3]benzazepin-7-yl)-N,N-dimethylacetamide

> <PUBCHEM_IUPAC_NAME_MARKUP>
2-(2-amino-5,6,8,9-tetrahydro-[1,3]thiazolo[4,5-h][3]benzazepin-7-yl)-<I>N</I>,<I>N</I>-dimethylacetamide

> <PUBCHEM_IUPAC_NAME>
2-(2-amino-5,6,8,9-tetrahydro-[1,3]thiazolo[4,5-h][3]benzazepin-7-yl)-N,N-dimethylacetamide

> <PUBCHEM_IUPAC_SYSTEMATIC_NAME>
2-(2-azanyl-5,6,8,9-tetrahydro-[1,3]thiazolo[4,5-h][3]benzazepin-7-yl)-N,N-dimethyl-ethanamide

> <PUBCHEM_IUPAC_TRADITIONAL_NAME>
2-(2-amino-5,6,8,9-tetrahydrothiazolo[4,5-h][3]benzazepin-7-yl)-N,N-dimethyl-acetamide

> <PUBCHEM_IUPAC_INCHI>
InChI=1S/C15H20N4OS/c1-18(2)14(20)9-19-5-3-10-7-12-13(21-15(16)17-12)8-11(10)4-6-19/h7-8H,3-6,9H2,1-2H3,(H2,16,17)

> <PUBCHEM_IUPAC_INCHIKEY>
RQPDIRHNVASJQG-UHFFFAOYSA-N

> <PUBCHEM_XLOGP3_AA>
1.9

> <PUBCHEM_EXACT_MASS>
304.13578245

> <PUBCHEM_MOLECULAR_FORMULA>
C15H20N4OS

> <PUBCHEM_MOLECULAR_WEIGHT>
304.4

> <PUBCHEM_OPENEYE_CAN_SMILES>
CN(C)C(=O)CN1CCC2=CC3=C(C=C2CC1)SC(=N3)N

> <PUBCHEM_OPENEYE_ISO_SMILES>
CN(C)C(=O)CN1CCC2=CC3=C(C=C2CC1)SC(=N3)N

> <PUBCHEM_CACTVS_TPSA>
90.7

> <PUBCHEM_MONOISOTOPIC_WEIGHT>
304.13578245

> <PUBCHEM_TOTAL_CHARGE>
0

> <PUBCHEM_HEAVY_ATOM_COUNT>
21

> <PUBCHEM_ATOM_DEF_STEREO_COUNT>
0

> <PUBCHEM_ATOM_UDEF_STEREO_COUNT>
0

> <PUBCHEM_BOND_DEF_STEREO_COUNT>
0

> <PUBCHEM_BOND_UDEF_STEREO_COUNT>
0

> <PUBCHEM_ISOTOPIC_ATOM_COUNT>
0

> <PUBCHEM_COMPONENT_COUNT>
1

> <PUBCHEM_CACTVS_TAUTO_COUNT>
-1

> <PUBCHEM_COORDINATE_TYPE>
1
5
255

> <PUBCHEM_BONDANNOTATIONS>
1  16  8
1  19  8
11  12  8
11  14  8
12  15  8
14  16  8
15  17  8
16  17  8
5  17  8
5  19  8

$$$$
