166629480
  -OEChem-09292322442D

 61 64  0     1  0  0  0  0  0999 V2000
    3.0723    3.1349    0.0000 O   0  0  0  0  0  0  0  0  0  0  0  0
    6.0370   -4.2493    0.0000 O   0  0  0  0  0  0  0  0  0  0  0  0
    4.5723    2.2689    0.0000 O   0  0  0  0  0  0  0  0  0  0  0  0
    5.7405   -0.6434    0.0000 N   0  0  3  0  0  0  0  0  0  0  0  0
    4.0501   -1.4117    0.0000 C   0  0  1  0  0  0  0  0  0  0  0  0
    4.3089   -0.4458    0.0000 C   0  0  2  0  0  0  0  0  0  0  0  0
    3.5723    0.5368    0.0000 C   0  0  0  0  0  0  0  0  0  0  0  0
    2.8290   -2.2774    0.0000 C   0  0  0  0  0  0  0  0  0  0  0  0
    5.3217   -2.2063    0.0000 C   0  0  0  0  0  0  0  0  0  0  0  0
    2.2756   -0.7569    0.0000 C   0  0  0  0  0  0  0  0  0  0  0  0
    2.0000   -1.7182    0.0000 C   0  0  0  0  0  0  0  0  0  0  0  0
    6.0989   -1.5770    0.0000 C   0  0  0  0  0  0  0  0  0  0  0  0
    4.1373   -2.4079    0.0000 C   0  0  0  0  0  0  0  0  0  0  0  0
    6.2852    0.1952    0.0000 C   0  0  0  0  0  0  0  0  0  0  0  0
    3.0723    1.4029    0.0000 C   0  0  0  0  0  0  0  0  0  0  0  0
    5.0435   -2.8305    0.0000 C   0  0  0  0  0  0  0  0  0  0  0  0
    3.3181   -2.9815    0.0000 C   0  0  0  0  0  0  0  0  0  0  0  0
    7.2838    0.1429    0.0000 C   0  0  0  0  0  0  0  0  0  0  0  0
    3.5723    2.2689    0.0000 C   0  0  0  0  0  0  0  0  0  0  0  0
    5.1307   -3.8267    0.0000 C   0  0  0  0  0  0  0  0  0  0  0  0
    3.4052   -3.9777    0.0000 C   0  0  0  0  0  0  0  0  0  0  0  0
    7.8284    0.9816    0.0000 C   0  0  0  0  0  0  0  0  0  0  0  0
    4.3116   -4.4003    0.0000 C   0  0  0  0  0  0  0  0  0  0  0  0
    8.8271    0.9292    0.0000 C   0  0  0  0  0  0  0  0  0  0  0  0
    7.3744    1.8726    0.0000 C   0  0  0  0  0  0  0  0  0  0  0  0
    3.5723    4.0009    0.0000 C   0  0  0  0  0  0  0  0  0  0  0  0
    9.3717    1.7679    0.0000 C   0  0  0  0  0  0  0  0  0  0  0  0
    7.9191    2.7112    0.0000 C   0  0  0  0  0  0  0  0  0  0  0  0
    8.9177    2.6589    0.0000 C   0  0  0  0  0  0  0  0  0  0  0  0
    3.0723    4.8670    0.0000 C   0  0  0  0  0  0  0  0  0  0  0  0
    4.5289    0.3753    0.0000 H   0  0  0  0  0  0  0  0  0  0  0  0
    2.4232   -2.7461    0.0000 H   0  0  0  0  0  0  0  0  0  0  0  0
    3.2457   -2.7365    0.0000 H   0  0  0  0  0  0  0  0  0  0  0  0
    4.9372   -2.6927    0.0000 H   0  0  0  0  0  0  0  0  0  0  0  0
    5.7627   -2.6422    0.0000 H   0  0  0  0  0  0  0  0  0  0  0  0
    2.2706   -0.1369    0.0000 H   0  0  0  0  0  0  0  0  0  0  0  0
    1.6613   -0.6731    0.0000 H   0  0  0  0  0  0  0  0  0  0  0  0
    1.4252   -1.4859    0.0000 H   0  0  0  0  0  0  0  0  0  0  0  0
    1.7089   -2.2656    0.0000 H   0  0  0  0  0  0  0  0  0  0  0  0
    6.4366   -2.0970    0.0000 H   0  0  0  0  0  0  0  0  0  0  0  0
    6.6513   -1.2955    0.0000 H   0  0  0  0  0  0  0  0  0  0  0  0
    6.4246    0.7993    0.0000 H   0  0  0  0  0  0  0  0  0  0  0  0
    5.7144    0.4375    0.0000 H   0  0  0  0  0  0  0  0  0  0  0  0
    2.4523    1.4029    0.0000 H   0  0  0  0  0  0  0  0  0  0  0  0
    5.5514   -2.4749    0.0000 H   0  0  0  0  0  0  0  0  0  0  0  0
    2.7562   -2.7194    0.0000 H   0  0  0  0  0  0  0  0  0  0  0  0
    7.1443   -0.4612    0.0000 H   0  0  0  0  0  0  0  0  0  0  0  0
    7.8545   -0.0994    0.0000 H   0  0  0  0  0  0  0  0  0  0  0  0
    2.8974   -4.3333    0.0000 H   0  0  0  0  0  0  0  0  0  0  0  0
    4.3657   -5.0179    0.0000 H   0  0  0  0  0  0  0  0  0  0  0  0
    9.1085    0.3768    0.0000 H   0  0  0  0  0  0  0  0  0  0  0  0
    6.7553    1.9050    0.0000 H   0  0  0  0  0  0  0  0  0  0  0  0
    6.0910   -4.8670    0.0000 H   0  0  0  0  0  0  0  0  0  0  0  0
    4.0472    3.6024    0.0000 H   0  0  0  0  0  0  0  0  0  0  0  0
    4.0472    4.3995    0.0000 H   0  0  0  0  0  0  0  0  0  0  0  0
    9.9908    1.7354    0.0000 H   0  0  0  0  0  0  0  0  0  0  0  0
    7.6376    3.2637    0.0000 H   0  0  0  0  0  0  0  0  0  0  0  0
    9.2554    3.1789    0.0000 H   0  0  0  0  0  0  0  0  0  0  0  0
    3.6092    5.1770    0.0000 H   0  0  0  0  0  0  0  0  0  0  0  0
    2.7623    5.4039    0.0000 H   0  0  0  0  0  0  0  0  0  0  0  0
    2.5353    4.5570    0.0000 H   0  0  0  0  0  0  0  0  0  0  0  0
  1 19  1  0  0  0  0
  1 26  1  0  0  0  0
  2 20  1  0  0  0  0
  2 53  1  0  0  0  0
  3 19  2  0  0  0  0
  4  6  1  0  0  0  0
  4 12  1  0  0  0  0
  4 14  1  0  0  0  0
  5  7  1  0  0  0  0
  5  8  1  0  0  0  0
  5  9  1  0  0  0  0
  5 13  1  1  0  0  0
  6  7  1  0  0  0  0
  6 10  1  0  0  0  0
  6 31  1  6  0  0  0
  7 15  2  0  0  0  0
  8 11  1  0  0  0  0
  8 32  1  0  0  0  0
  8 33  1  0  0  0  0
  9 12  1  0  0  0  0
  9 34  1  0  0  0  0
  9 35  1  0  0  0  0
 10 11  1  0  0  0  0
 10 36  1  0  0  0  0
 10 37  1  0  0  0  0
 11 38  1  0  0  0  0
 11 39  1  0  0  0  0
 12 40  1  0  0  0  0
 12 41  1  0  0  0  0
 13 16  2  0  0  0  0
 13 17  1  0  0  0  0
 14 18  1  0  0  0  0
 14 42  1  0  0  0  0
 14 43  1  0  0  0  0
 15 19  1  0  0  0  0
 15 44  1  0  0  0  0
 16 20  1  0  0  0  0
 16 45  1  0  0  0  0
 17 21  2  0  0  0  0
 17 46  1  0  0  0  0
 18 22  1  0  0  0  0
 18 47  1  0  0  0  0
 18 48  1  0  0  0  0
 20 23  2  0  0  0  0
 21 23  1  0  0  0  0
 21 49  1  0  0  0  0
 22 24  2  0  0  0  0
 22 25  1  0  0  0  0
 23 50  1  0  0  0  0
 24 27  1  0  0  0  0
 24 51  1  0  0  0  0
 25 28  2  0  0  0  0
 25 52  1  0  0  0  0
 26 30  1  0  0  0  0
 26 54  1  0  0  0  0
 26 55  1  0  0  0  0
 27 29  2  0  0  0  0
 27 56  1  0  0  0  0
 28 29  1  0  0  0  0
 28 57  1  0  0  0  0
 29 58  1  0  0  0  0
 30 59  1  0  0  0  0
 30 60  1  0  0  0  0
 30 61  1  0  0  0  0
M  END
> <PUBCHEM_COMPOUND_CID>
166629480

> <PUBCHEM_COMPOUND_CANONICALIZED>
1

> <PUBCHEM_CACTVS_COMPLEXITY>
611

> <PUBCHEM_CACTVS_HBOND_ACCEPTOR>
4

> <PUBCHEM_CACTVS_HBOND_DONOR>
1

> <PUBCHEM_CACTVS_ROTATABLE_BOND>
7

> <PUBCHEM_CACTVS_SUBSKEYS>
AAADceB6MAAAAAAAAAAAAAAAAAAAAAAAAAA8YMEAAAAWAAABQAAAHgAACAAADizhmAYyDoMABgCIAiDSCACCAAAgIAAIiAAOCMgIJiKCsROGcAAkwBGIuQeQwPAPgAABAAAAAAAAAAKAAAAAAAAAAAAAAA==

> <PUBCHEM_IUPAC_OPENEYE_NAME>
ethyl (2Z)-2-[(1S,5S)-5-(3-hydroxyphenyl)-2-(2-phenylethyl)-2-azabicyclo[3.3.1]nonan-9-ylidene]acetate

> <PUBCHEM_IUPAC_CAS_NAME>
(2Z)-2-[(1S,5S)-5-(3-hydroxyphenyl)-2-(2-phenylethyl)-2-azabicyclo[3.3.1]nonan-9-ylidene]acetic acid ethyl ester

> <PUBCHEM_IUPAC_NAME_MARKUP>
ethyl (2<I>Z</I>)-2-[(1<I>S</I>,5<I>S</I>)-5-(3-hydroxyphenyl)-2-(2-phenylethyl)-2-azabicyclo[3.3.1]nonan-9-ylidene]acetate

> <PUBCHEM_IUPAC_NAME>
ethyl (2Z)-2-[(1S,5S)-5-(3-hydroxyphenyl)-2-(2-phenylethyl)-2-azabicyclo[3.3.1]nonan-9-ylidene]acetate

> <PUBCHEM_IUPAC_SYSTEMATIC_NAME>
ethyl (2Z)-2-[(1S,5S)-5-(3-hydroxyphenyl)-2-(2-phenylethyl)-2-azabicyclo[3.3.1]nonan-9-ylidene]ethanoate

> <PUBCHEM_IUPAC_TRADITIONAL_NAME>
(2Z)-2-[(1S,5S)-5-(3-hydroxyphenyl)-2-phenethyl-2-azabicyclo[3.3.1]nonan-9-ylidene]acetic acid ethyl ester

> <PUBCHEM_IUPAC_INCHI>
InChI=1S/C26H31NO3/c1-2-30-25(29)19-23-24-12-7-14-26(23,21-10-6-11-22(28)18-21)15-17-27(24)16-13-20-8-4-3-5-9-20/h3-6,8-11,18-19,24,28H,2,7,12-17H2,1H3/b23-19+/t24-,26-/m0/s1

> <PUBCHEM_IUPAC_INCHIKEY>
ZUWVCRLPWWEGRD-LBVTXTQZSA-N

> <PUBCHEM_XLOGP3_AA>
4.9

> <PUBCHEM_EXACT_MASS>
405.23039385

> <PUBCHEM_MOLECULAR_FORMULA>
C26H31NO3

> <PUBCHEM_MOLECULAR_WEIGHT>
405.5

> <PUBCHEM_OPENEYE_CAN_SMILES>
CCOC(=O)C=C1C2CCCC1(CCN2CCC3=CC=CC=C3)C4=CC(=CC=C4)O

> <PUBCHEM_OPENEYE_ISO_SMILES>
CCOC(=O)/C=C/1\[C@@H]2CCC[C@]1(CCN2CCC3=CC=CC=C3)C4=CC(=CC=C4)O

> <PUBCHEM_CACTVS_TPSA>
49.8

> <PUBCHEM_MONOISOTOPIC_WEIGHT>
405.23039385

> <PUBCHEM_TOTAL_CHARGE>
0

> <PUBCHEM_HEAVY_ATOM_COUNT>
30

> <PUBCHEM_ATOM_DEF_STEREO_COUNT>
2

> <PUBCHEM_ATOM_UDEF_STEREO_COUNT>
0

> <PUBCHEM_BOND_DEF_STEREO_COUNT>
1

> <PUBCHEM_BOND_UDEF_STEREO_COUNT>
0

> <PUBCHEM_ISOTOPIC_ATOM_COUNT>
0

> <PUBCHEM_COMPONENT_COUNT>
1

> <PUBCHEM_CACTVS_TAUTO_COUNT>
-1

> <PUBCHEM_COORDINATE_TYPE>
1
5
255

> <PUBCHEM_BONDANNOTATIONS>
13  16  8
13  17  8
16  20  8
17  21  8
20  23  8
21  23  8
22  24  8
22  25  8
24  27  8
25  28  8
27  29  8
28  29  8
5  13  5
6  31  6

$$$$
