45260407
  -OEChem-09292322102D

 66 69  0     1  0  0  0  0  0999 V2000
    7.1883    0.0000    0.0000 Cl  0  0  0  0  0  0  0  0  0  0  0  0
   11.3224    6.1481    0.0000 O   0  0  0  0  0  0  0  0  0  0  0  0
    5.2602    6.6481    0.0000 N   0  0  3  0  0  0  0  0  0  0  0  0
   10.4564    4.6481    0.0000 N   0  0  0  0  0  0  0  0  0  0  0  0
    0.0000    8.6756    0.0000 N   0  0  0  0  0  0  0  0  0  0  0  0
    7.8583    6.1481    0.0000 C   0  0  0  0  0  0  0  0  0  0  0  0
    8.7243    6.6481    0.0000 C   0  0  0  0  0  0  0  0  0  0  0  0
    7.8583    5.1481    0.0000 C   0  0  0  0  0  0  0  0  0  0  0  0
    9.5904    5.1481    0.0000 C   0  0  0  0  0  0  0  0  0  0  0  0
    9.5904    6.1481    0.0000 C   0  0  0  0  0  0  0  0  0  0  0  0
    8.7243    4.6481    0.0000 C   0  0  0  0  0  0  0  0  0  0  0  0
    6.9923    6.6481    0.0000 C   0  0  0  0  0  0  0  0  0  0  0  0
    6.1263    6.1481    0.0000 C   0  0  0  0  0  0  0  0  0  0  0  0
    5.2602    7.6481    0.0000 C   0  0  0  0  0  0  0  0  0  0  0  0
    4.3942    6.1481    0.0000 C   0  0  0  0  0  0  0  0  0  0  0  0
    4.3942    8.1481    0.0000 C   0  0  0  0  0  0  0  0  0  0  0  0
    3.5282    6.6481    0.0000 C   0  0  0  0  0  0  0  0  0  0  0  0
    3.5282    7.6481    0.0000 C   0  0  0  0  0  0  0  0  0  0  0  0
   11.3224    5.1481    0.0000 C   0  0  0  0  0  0  0  0  0  0  0  0
    2.6343    6.1135    0.0000 C   0  0  0  0  0  0  0  0  0  0  0  0
    2.6343    8.1828    0.0000 C   0  0  0  0  0  0  0  0  0  0  0  0
   12.1884    4.6481    0.0000 C   0  0  0  0  0  0  0  0  0  0  0  0
    1.7282    6.6273    0.0000 C   0  0  0  0  0  0  0  0  0  0  0  0
    1.7282    7.6689    0.0000 C   0  0  0  0  0  0  0  0  0  0  0  0
   13.0545    5.1481    0.0000 C   0  0  0  0  0  0  0  0  0  0  0  0
   12.1884    3.6481    0.0000 C   0  0  0  0  0  0  0  0  0  0  0  0
   13.9205    4.6481    0.0000 C   0  0  0  0  0  0  0  0  0  0  0  0
   13.0545    3.1481    0.0000 C   0  0  0  0  0  0  0  0  0  0  0  0
   13.0384    6.1896    0.0000 C   0  0  0  0  0  0  0  0  0  0  0  0
   13.9205    3.6481    0.0000 C   0  0  0  0  0  0  0  0  0  0  0  0
    0.8641    8.1723    0.0000 C   0  0  0  0  0  0  0  0  0  0  0  0
   14.8305    5.1550    0.0000 C   0  0  0  0  0  0  0  0  0  0  0  0
   13.9364    6.7174    0.0000 C   0  0  0  0  0  0  0  0  0  0  0  0
   14.8385    6.1966    0.0000 C   0  0  0  0  0  0  0  0  0  0  0  0
    7.3214    5.8381    0.0000 H   0  0  0  0  0  0  0  0  0  0  0  0
    9.1229    7.1231    0.0000 H   0  0  0  0  0  0  0  0  0  0  0  0
    8.3258    7.1231    0.0000 H   0  0  0  0  0  0  0  0  0  0  0  0
    7.2477    5.2558    0.0000 H   0  0  0  0  0  0  0  0  0  0  0  0
    7.6463    4.5655    0.0000 H   0  0  0  0  0  0  0  0  0  0  0  0
   10.1273    5.4581    0.0000 H   0  0  0  0  0  0  0  0  0  0  0  0
   10.2010    6.0405    0.0000 H   0  0  0  0  0  0  0  0  0  0  0  0
    9.8024    6.7307    0.0000 H   0  0  0  0  0  0  0  0  0  0  0  0
    8.3258    4.1732    0.0000 H   0  0  0  0  0  0  0  0  0  0  0  0
    9.1229    4.1732    0.0000 H   0  0  0  0  0  0  0  0  0  0  0  0
    7.3908    7.1231    0.0000 H   0  0  0  0  0  0  0  0  0  0  0  0
    6.5938    7.1231    0.0000 H   0  0  0  0  0  0  0  0  0  0  0  0
    5.7277    5.6732    0.0000 H   0  0  0  0  0  0  0  0  0  0  0  0
    6.5248    5.6732    0.0000 H   0  0  0  0  0  0  0  0  0  0  0  0
   10.4564    4.0281    0.0000 H   0  0  0  0  0  0  0  0  0  0  0  0
    5.8708    7.5405    0.0000 H   0  0  0  0  0  0  0  0  0  0  0  0
    5.4723    8.2307    0.0000 H   0  0  0  0  0  0  0  0  0  0  0  0
    3.9957    5.6732    0.0000 H   0  0  0  0  0  0  0  0  0  0  0  0
    4.7928    5.6732    0.0000 H   0  0  0  0  0  0  0  0  0  0  0  0
    4.7928    8.6231    0.0000 H   0  0  0  0  0  0  0  0  0  0  0  0
    3.9957    8.6231    0.0000 H   0  0  0  0  0  0  0  0  0  0  0  0
    2.6414    5.4935    0.0000 H   0  0  0  0  0  0  0  0  0  0  0  0
    2.6414    8.8028    0.0000 H   0  0  0  0  0  0  0  0  0  0  0  0
    1.1924    6.3152    0.0000 H   0  0  0  0  0  0  0  0  0  0  0  0
   11.6515    3.3381    0.0000 H   0  0  0  0  0  0  0  0  0  0  0  0
   13.0545    2.5281    0.0000 H   0  0  0  0  0  0  0  0  0  0  0  0
   12.4979    6.4934    0.0000 H   0  0  0  0  0  0  0  0  0  0  0  0
   14.4574    3.3381    0.0000 H   0  0  0  0  0  0  0  0  0  0  0  0
   15.3638    4.8388    0.0000 H   0  0  0  0  0  0  0  0  0  0  0  0
   13.9341    7.3374    0.0000 H   0  0  0  0  0  0  0  0  0  0  0  0
   15.3767    6.5045    0.0000 H   0  0  0  0  0  0  0  0  0  0  0  0
    8.1883    0.0000    0.0000 H   0  0  0  0  0  0  0  0  0  0  0  0
  1 66  1  0  0  0  0
  2 19  2  0  0  0  0
  3 13  1  0  0  0  0
  3 14  1  0  0  0  0
  3 15  1  0  0  0  0
  4  9  1  0  0  0  0
  4 19  1  0  0  0  0
  4 49  1  0  0  0  0
  5 31  3  0  0  0  0
  6  7  1  0  0  0  0
  6  8  1  0  0  0  0
  6 12  1  0  0  0  0
  6 35  1  0  0  0  0
  7 10  1  0  0  0  0
  7 36  1  0  0  0  0
  7 37  1  0  0  0  0
  8 11  1  0  0  0  0
  8 38  1  0  0  0  0
  8 39  1  0  0  0  0
  9 10  1  0  0  0  0
  9 11  1  0  0  0  0
  9 40  1  0  0  0  0
 10 41  1  0  0  0  0
 10 42  1  0  0  0  0
 11 43  1  0  0  0  0
 11 44  1  0  0  0  0
 12 13  1  0  0  0  0
 12 45  1  0  0  0  0
 12 46  1  0  0  0  0
 13 47  1  0  0  0  0
 13 48  1  0  0  0  0
 14 16  1  0  0  0  0
 14 50  1  0  0  0  0
 14 51  1  0  0  0  0
 15 17  1  0  0  0  0
 15 52  1  0  0  0  0
 15 53  1  0  0  0  0
 16 18  1  0  0  0  0
 16 54  1  0  0  0  0
 16 55  1  0  0  0  0
 17 18  2  0  0  0  0
 17 20  1  0  0  0  0
 18 21  1  0  0  0  0
 19 22  1  0  0  0  0
 20 23  2  0  0  0  0
 20 56  1  0  0  0  0
 21 24  2  0  0  0  0
 21 57  1  0  0  0  0
 22 25  1  0  0  0  0
 22 26  2  0  0  0  0
 23 24  1  0  0  0  0
 23 58  1  0  0  0  0
 24 31  1  0  0  0  0
 25 27  1  0  0  0  0
 25 29  2  0  0  0  0
 26 28  1  0  0  0  0
 26 59  1  0  0  0  0
 27 30  1  0  0  0  0
 27 32  2  0  0  0  0
 28 30  2  0  0  0  0
 28 60  1  0  0  0  0
 29 33  1  0  0  0  0
 29 61  1  0  0  0  0
 30 62  1  0  0  0  0
 32 34  1  0  0  0  0
 32 63  1  0  0  0  0
 33 34  2  0  0  0  0
 33 64  1  0  0  0  0
 34 65  1  0  0  0  0
M  END
> <PUBCHEM_COMPOUND_CID>
45260407

> <PUBCHEM_COMPOUND_CANONICALIZED>
1

> <PUBCHEM_CACTVS_COMPLEXITY>
705

> <PUBCHEM_CACTVS_HBOND_ACCEPTOR>
3

> <PUBCHEM_CACTVS_HBOND_DONOR>
2

> <PUBCHEM_CACTVS_ROTATABLE_BOND>
5

> <PUBCHEM_CACTVS_SUBSKEYS>
AAADcfB7IAAEAAAAAAAAAAAAAAAAAAAAAAA8YMGCAAAAAADxVAAAHgAQAAAADSjBmAQwAMPAAACYBiFSEACiAAAkAAAIiIEIBMgIoDKAlRGEIQhglgCIiY8YiMCOwAACAAAQAACQAAQAACAAAAAAAAAAAA==

> <PUBCHEM_IUPAC_OPENEYE_NAME>
N-[4-[2-(6-cyano-3,4-dihydro-1H-isoquinolin-2-yl)ethyl]cyclohexyl]naphthalene-1-carboxamide;hydrochloride

> <PUBCHEM_IUPAC_CAS_NAME>
N-[4-[2-(6-cyano-3,4-dihydro-1H-isoquinolin-2-yl)ethyl]cyclohexyl]-1-naphthalenecarboxamide;hydrochloride

> <PUBCHEM_IUPAC_NAME_MARKUP>
<I>N</I>-[4-[2-(6-cyano-3,4-dihydro-1<I>H</I>-isoquinolin-2-yl)ethyl]cyclohexyl]naphthalene-1-carboxamide;hydrochloride

> <PUBCHEM_IUPAC_NAME>
N-[4-[2-(6-cyano-3,4-dihydro-1H-isoquinolin-2-yl)ethyl]cyclohexyl]naphthalene-1-carboxamide;hydrochloride

> <PUBCHEM_IUPAC_SYSTEMATIC_NAME>
N-[4-[2-(6-cyano-3,4-dihydro-1H-isoquinolin-2-yl)ethyl]cyclohexyl]naphthalene-1-carboxamide;hydrochloride

> <PUBCHEM_IUPAC_TRADITIONAL_NAME>
N-[4-[2-(6-cyano-3,4-dihydro-1H-isoquinolin-2-yl)ethyl]cyclohexyl]-1-naphthamide;hydrochloride

> <PUBCHEM_IUPAC_INCHI>
InChI=1S/C29H31N3O.ClH/c30-19-22-8-11-25-20-32(17-15-24(25)18-22)16-14-21-9-12-26(13-10-21)31-29(33)28-7-3-5-23-4-1-2-6-27(23)28;/h1-8,11,18,21,26H,9-10,12-17,20H2,(H,31,33);1H

> <PUBCHEM_IUPAC_INCHIKEY>
JDTJZHYLLBAZBK-UHFFFAOYSA-N

> <PUBCHEM_EXACT_MASS>
473.2233903

> <PUBCHEM_MOLECULAR_FORMULA>
C29H32ClN3O

> <PUBCHEM_MOLECULAR_WEIGHT>
474.0

> <PUBCHEM_OPENEYE_CAN_SMILES>
C1CC(CCC1CCN2CCC3=C(C2)C=CC(=C3)C#N)NC(=O)C4=CC=CC5=CC=CC=C54.Cl

> <PUBCHEM_OPENEYE_ISO_SMILES>
C1CC(CCC1CCN2CCC3=C(C2)C=CC(=C3)C#N)NC(=O)C4=CC=CC5=CC=CC=C54.Cl

> <PUBCHEM_CACTVS_TPSA>
56.1

> <PUBCHEM_MONOISOTOPIC_WEIGHT>
473.2233903

> <PUBCHEM_TOTAL_CHARGE>
0

> <PUBCHEM_HEAVY_ATOM_COUNT>
34

> <PUBCHEM_ATOM_DEF_STEREO_COUNT>
0

> <PUBCHEM_ATOM_UDEF_STEREO_COUNT>
0

> <PUBCHEM_BOND_DEF_STEREO_COUNT>
0

> <PUBCHEM_BOND_UDEF_STEREO_COUNT>
0

> <PUBCHEM_ISOTOPIC_ATOM_COUNT>
0

> <PUBCHEM_COMPONENT_COUNT>
2

> <PUBCHEM_CACTVS_TAUTO_COUNT>
-1

> <PUBCHEM_COORDINATE_TYPE>
1
5
255

> <PUBCHEM_BONDANNOTATIONS>
17  18  8
17  20  8
18  21  8
20  23  8
21  24  8
22  25  8
22  26  8
23  24  8
25  27  8
25  29  8
26  28  8
27  30  8
27  32  8
28  30  8
29  33  8
32  34  8
33  34  8

$$$$
