10059206
  -OEChem-09292322142D

 31 33  0     1  0  0  0  0  0999 V2000
    4.8714    2.3728    0.0000 O   0  0  0  0  0  0  0  0  0  0  0  0
    4.6660    0.6272    0.0000 N   0  0  0  0  0  0  0  0  0  0  0  0
    6.3981   -1.3728    0.0000 N   0  0  0  0  0  0  0  0  0  0  0  0
    3.3073    1.5711    0.0000 N   0  0  0  0  0  0  0  0  0  0  0  0
    5.5321   -0.8728    0.0000 C   0  0  1  0  0  0  0  0  0  0  0  0
    5.5321    0.1272    0.0000 C   0  0  0  0  0  0  0  0  0  0  0  0
    4.6660   -1.3728    0.0000 C   0  0  0  0  0  0  0  0  0  0  0  0
    3.8000    0.1272    0.0000 C   0  0  0  0  0  0  0  0  0  0  0  0
    3.8000   -0.8728    0.0000 C   0  0  0  0  0  0  0  0  0  0  0  0
    2.9061    0.6619    0.0000 C   0  0  0  0  0  0  0  0  0  0  0  0
    4.3009    1.5515    0.0000 C   0  0  0  0  0  0  0  0  0  0  0  0
    2.9061   -1.4075    0.0000 C   0  0  0  0  0  0  0  0  0  0  0  0
    2.0000    0.1480    0.0000 C   0  0  0  0  0  0  0  0  0  0  0  0
    6.3981   -2.3728    0.0000 C   0  0  0  0  0  0  0  0  0  0  0  0
    7.2641   -0.8728    0.0000 C   0  0  0  0  0  0  0  0  0  0  0  0
    2.0000   -0.8936    0.0000 C   0  0  0  0  0  0  0  0  0  0  0  0
    5.5321   -1.4928    0.0000 H   0  0  0  0  0  0  0  0  0  0  0  0
    6.1426    0.0195    0.0000 H   0  0  0  0  0  0  0  0  0  0  0  0
    5.7441    0.7098    0.0000 H   0  0  0  0  0  0  0  0  0  0  0  0
    4.2675   -1.8478    0.0000 H   0  0  0  0  0  0  0  0  0  0  0  0
    5.0646   -1.8478    0.0000 H   0  0  0  0  0  0  0  0  0  0  0  0
    2.9132   -2.0274    0.0000 H   0  0  0  0  0  0  0  0  0  0  0  0
    2.9739    2.0938    0.0000 H   0  0  0  0  0  0  0  0  0  0  0  0
    1.4643    0.4601    0.0000 H   0  0  0  0  0  0  0  0  0  0  0  0
    5.7781   -2.3728    0.0000 H   0  0  0  0  0  0  0  0  0  0  0  0
    6.3981   -2.9928    0.0000 H   0  0  0  0  0  0  0  0  0  0  0  0
    7.0181   -2.3728    0.0000 H   0  0  0  0  0  0  0  0  0  0  0  0
    7.5741   -1.4097    0.0000 H   0  0  0  0  0  0  0  0  0  0  0  0
    7.8010   -0.5628    0.0000 H   0  0  0  0  0  0  0  0  0  0  0  0
    6.9541   -0.3359    0.0000 H   0  0  0  0  0  0  0  0  0  0  0  0
    1.4643   -1.2057    0.0000 H   0  0  0  0  0  0  0  0  0  0  0  0
  1 11  2  0  0  0  0
  2  6  1  0  0  0  0
  2  8  1  0  0  0  0
  2 11  1  0  0  0  0
  5  3  1  6  0  0  0
  3 14  1  0  0  0  0
  3 15  1  0  0  0  0
  4 10  1  0  0  0  0
  4 11  1  0  0  0  0
  4 23  1  0  0  0  0
  5  6  1  0  0  0  0
  5  7  1  0  0  0  0
  5 17  1  0  0  0  0
  6 18  1  0  0  0  0
  6 19  1  0  0  0  0
  7  9  1  0  0  0  0
  7 20  1  0  0  0  0
  7 21  1  0  0  0  0
  8  9  2  0  0  0  0
  8 10  1  0  0  0  0
  9 12  1  0  0  0  0
 10 13  2  0  0  0  0
 12 16  2  0  0  0  0
 12 22  1  0  0  0  0
 13 16  1  0  0  0  0
 13 24  1  0  0  0  0
 14 25  1  0  0  0  0
 14 26  1  0  0  0  0
 14 27  1  0  0  0  0
 15 28  1  0  0  0  0
 15 29  1  0  0  0  0
 15 30  1  0  0  0  0
 16 31  1  0  0  0  0
M  END
> <PUBCHEM_COMPOUND_CID>
10059206

> <PUBCHEM_COMPOUND_CANONICALIZED>
1

> <PUBCHEM_CACTVS_COMPLEXITY>
305

> <PUBCHEM_CACTVS_HBOND_ACCEPTOR>
2

> <PUBCHEM_CACTVS_HBOND_DONOR>
1

> <PUBCHEM_CACTVS_ROTATABLE_BOND>
1

> <PUBCHEM_CACTVS_SUBSKEYS>
AAADccBzIAAAAAAAAAAAAAAAAAAAAWAAAAA8QAAAAAAAAFixAAAAHgAQAAAADCjBGAQzwIPAAACIAiRCUACCAAAhAgAIiAAIdIiIYCLAkZGUIAholgLIyCcQgIAOAAAAQAACACAAAACAAAQAQAAAAAAAAA==

> <PUBCHEM_IUPAC_OPENEYE_NAME>
(10R)-10-(dimethylamino)-1,3-diazatricyclo[6.3.1.04,12]dodeca-4,6,8(12)-trien-2-one

> <PUBCHEM_IUPAC_CAS_NAME>
(10R)-10-(dimethylamino)-1,3-diazatricyclo[6.3.1.04,12]dodeca-4,6,8(12)-trien-2-one

> <PUBCHEM_IUPAC_NAME_MARKUP>
(10<I>R</I>)-10-(dimethylamino)-1,3-diazatricyclo[6.3.1.0<SUP>4,12</SUP>]dodeca-4,6,8(12)-trien-2-one

> <PUBCHEM_IUPAC_NAME>
(10R)-10-(dimethylamino)-1,3-diazatricyclo[6.3.1.04,12]dodeca-4,6,8(12)-trien-2-one

> <PUBCHEM_IUPAC_SYSTEMATIC_NAME>
(10R)-10-(dimethylamino)-1,3-diazatricyclo[6.3.1.04,12]dodeca-4,6,8(12)-trien-2-one

> <PUBCHEM_IUPAC_TRADITIONAL_NAME>
(10R)-10-(dimethylamino)-1,3-diazatricyclo[6.3.1.04,12]dodeca-4,6,8(12)-trien-2-one

> <PUBCHEM_IUPAC_INCHI>
InChI=1S/C12H15N3O/c1-14(2)9-6-8-4-3-5-10-11(8)15(7-9)12(16)13-10/h3-5,9H,6-7H2,1-2H3,(H,13,16)/t9-/m1/s1

> <PUBCHEM_IUPAC_INCHIKEY>
GYEMKOUGMLMNRE-SECBINFHSA-N

> <PUBCHEM_XLOGP3_AA>
0.9

> <PUBCHEM_EXACT_MASS>
217.121512110

> <PUBCHEM_MOLECULAR_FORMULA>
C12H15N3O

> <PUBCHEM_MOLECULAR_WEIGHT>
217.27

> <PUBCHEM_OPENEYE_CAN_SMILES>
CN(C)C1CC2=C3C(=CC=C2)NC(=O)N3C1

> <PUBCHEM_OPENEYE_ISO_SMILES>
CN(C)[C@@H]1CC2=C3C(=CC=C2)NC(=O)N3C1

> <PUBCHEM_CACTVS_TPSA>
35.6

> <PUBCHEM_MONOISOTOPIC_WEIGHT>
217.121512110

> <PUBCHEM_TOTAL_CHARGE>
0

> <PUBCHEM_HEAVY_ATOM_COUNT>
16

> <PUBCHEM_ATOM_DEF_STEREO_COUNT>
1

> <PUBCHEM_ATOM_UDEF_STEREO_COUNT>
0

> <PUBCHEM_BOND_DEF_STEREO_COUNT>
0

> <PUBCHEM_BOND_UDEF_STEREO_COUNT>
0

> <PUBCHEM_ISOTOPIC_ATOM_COUNT>
0

> <PUBCHEM_COMPONENT_COUNT>
1

> <PUBCHEM_CACTVS_TAUTO_COUNT>
-1

> <PUBCHEM_COORDINATE_TYPE>
1
5
255

> <PUBCHEM_BONDANNOTATIONS>
10  13  8
12  16  8
13  16  8
2  11  8
2  8  8
5  3  6
4  10  8
4  11  8
8  10  8
8  9  8
9  12  8

$$$$
