155547436
  -OEChem-09292322412D

 68 72  0     0  0  0  0  0  0999 V2000
    8.1142    6.5346    0.0000 O   0  0  0  0  0  0  0  0  0  0  0  0
    5.5161   -3.9654    0.0000 O   0  0  0  0  0  0  0  0  0  0  0  0
    2.0520   -3.9654    0.0000 O   0  0  0  0  0  0  0  0  0  0  0  0
    6.3821    1.5346    0.0000 N   0  0  0  0  0  0  0  0  0  0  0  0
    6.3821    3.5346    0.0000 N   0  0  0  0  0  0  0  0  0  0  0  0
    3.7841   -3.9654    0.0000 N   0  0  0  0  0  0  0  0  0  0  0  0
    7.2482    2.0346    0.0000 C   0  0  0  0  0  0  0  0  0  0  0  0
    5.5161    2.0346    0.0000 C   0  0  0  0  0  0  0  0  0  0  0  0
    6.3821    0.5346    0.0000 C   0  0  0  0  0  0  0  0  0  0  0  0
    7.2482    3.0346    0.0000 C   0  0  0  0  0  0  0  0  0  0  0  0
    5.5161    3.0346    0.0000 C   0  0  0  0  0  0  0  0  0  0  0  0
    5.5161    0.0346    0.0000 C   0  0  0  0  0  0  0  0  0  0  0  0
    5.5161   -0.9654    0.0000 C   0  0  0  0  0  0  0  0  0  0  0  0
    4.6501   -1.4654    0.0000 C   0  0  0  0  0  0  0  0  0  0  0  0
    4.6501   -2.4654    0.0000 C   0  0  0  0  0  0  0  0  0  0  0  0
    6.3821    4.5346    0.0000 C   0  0  0  0  0  0  0  0  0  0  0  0
    3.7841   -2.9654    0.0000 C   0  0  0  0  0  0  0  0  0  0  0  0
    7.2482    5.0346    0.0000 C   0  0  0  0  0  0  0  0  0  0  0  0
    5.5161    5.0346    0.0000 C   0  0  0  0  0  0  0  0  0  0  0  0
    3.7841   -5.9654    0.0000 C   0  0  0  0  0  0  0  0  0  0  0  0
    4.6501   -4.4654    0.0000 C   0  0  0  0  0  0  0  0  0  0  0  0
    2.9180   -4.4654    0.0000 C   0  0  0  0  0  0  0  0  0  0  0  0
    4.6501   -5.4654    0.0000 C   0  0  0  0  0  0  0  0  0  0  0  0
    2.9180   -5.4654    0.0000 C   0  0  0  0  0  0  0  0  0  0  0  0
    7.2482    6.0346    0.0000 C   0  0  0  0  0  0  0  0  0  0  0  0
    3.8001   -7.0069    0.0000 C   0  0  0  0  0  0  0  0  0  0  0  0
    5.5161    6.0346    0.0000 C   0  0  0  0  0  0  0  0  0  0  0  0
    6.3821    6.5346    0.0000 C   0  0  0  0  0  0  0  0  0  0  0  0
    5.5601   -5.9722    0.0000 C   0  0  0  0  0  0  0  0  0  0  0  0
    2.0080   -5.9722    0.0000 C   0  0  0  0  0  0  0  0  0  0  0  0
    4.6660   -7.5346    0.0000 C   0  0  0  0  0  0  0  0  0  0  0  0
    2.9021   -7.5346    0.0000 C   0  0  0  0  0  0  0  0  0  0  0  0
    5.5681   -7.0138    0.0000 C   0  0  0  0  0  0  0  0  0  0  0  0
    2.0000   -7.0138    0.0000 C   0  0  0  0  0  0  0  0  0  0  0  0
    8.1142    7.5346    0.0000 C   0  0  0  0  0  0  0  0  0  0  0  0
    7.4602    1.4520    0.0000 H   0  0  0  0  0  0  0  0  0  0  0  0
    7.8587    2.1423    0.0000 H   0  0  0  0  0  0  0  0  0  0  0  0
    4.9055    2.1423    0.0000 H   0  0  0  0  0  0  0  0  0  0  0  0
    5.3040    1.4520    0.0000 H   0  0  0  0  0  0  0  0  0  0  0  0
    6.5942   -0.0480    0.0000 H   0  0  0  0  0  0  0  0  0  0  0  0
    6.9927    0.6423    0.0000 H   0  0  0  0  0  0  0  0  0  0  0  0
    7.8587    2.9270    0.0000 H   0  0  0  0  0  0  0  0  0  0  0  0
    7.4602    3.6172    0.0000 H   0  0  0  0  0  0  0  0  0  0  0  0
    5.3040    3.6172    0.0000 H   0  0  0  0  0  0  0  0  0  0  0  0
    4.9055    2.9270    0.0000 H   0  0  0  0  0  0  0  0  0  0  0  0
    5.3040    0.6172    0.0000 H   0  0  0  0  0  0  0  0  0  0  0  0
    4.9055   -0.0730    0.0000 H   0  0  0  0  0  0  0  0  0  0  0  0
    5.7282   -1.5480    0.0000 H   0  0  0  0  0  0  0  0  0  0  0  0
    6.1267   -0.8577    0.0000 H   0  0  0  0  0  0  0  0  0  0  0  0
    4.4380   -0.8828    0.0000 H   0  0  0  0  0  0  0  0  0  0  0  0
    4.0395   -1.5730    0.0000 H   0  0  0  0  0  0  0  0  0  0  0  0
    4.8621   -3.0480    0.0000 H   0  0  0  0  0  0  0  0  0  0  0  0
    5.2607   -2.3577    0.0000 H   0  0  0  0  0  0  0  0  0  0  0  0
    3.5720   -2.3828    0.0000 H   0  0  0  0  0  0  0  0  0  0  0  0
    3.1735   -3.0730    0.0000 H   0  0  0  0  0  0  0  0  0  0  0  0
    7.7851    4.7246    0.0000 H   0  0  0  0  0  0  0  0  0  0  0  0
    4.9792    4.7246    0.0000 H   0  0  0  0  0  0  0  0  0  0  0  0
    4.9792    6.3446    0.0000 H   0  0  0  0  0  0  0  0  0  0  0  0
    6.3821    7.1546    0.0000 H   0  0  0  0  0  0  0  0  0  0  0  0
    6.0934   -5.6560    0.0000 H   0  0  0  0  0  0  0  0  0  0  0  0
    1.4747   -5.6560    0.0000 H   0  0  0  0  0  0  0  0  0  0  0  0
    4.6587   -8.1546    0.0000 H   0  0  0  0  0  0  0  0  0  0  0  0
    2.9045   -8.1546    0.0000 H   0  0  0  0  0  0  0  0  0  0  0  0
    6.1062   -7.3217    0.0000 H   0  0  0  0  0  0  0  0  0  0  0  0
    1.4619   -7.3217    0.0000 H   0  0  0  0  0  0  0  0  0  0  0  0
    8.7342    7.5346    0.0000 H   0  0  0  0  0  0  0  0  0  0  0  0
    8.1142    8.1546    0.0000 H   0  0  0  0  0  0  0  0  0  0  0  0
    7.4942    7.5346    0.0000 H   0  0  0  0  0  0  0  0  0  0  0  0
  1 25  1  0  0  0  0
  1 35  1  0  0  0  0
  2 21  2  0  0  0  0
  3 22  2  0  0  0  0
  4  7  1  0  0  0  0
  4  8  1  0  0  0  0
  4  9  1  0  0  0  0
  5 10  1  0  0  0  0
  5 11  1  0  0  0  0
  5 16  1  0  0  0  0
  6 17  1  0  0  0  0
  6 21  1  0  0  0  0
  6 22  1  0  0  0  0
  7 10  1  0  0  0  0
  7 36  1  0  0  0  0
  7 37  1  0  0  0  0
  8 11  1  0  0  0  0
  8 38  1  0  0  0  0
  8 39  1  0  0  0  0
  9 12  1  0  0  0  0
  9 40  1  0  0  0  0
  9 41  1  0  0  0  0
 10 42  1  0  0  0  0
 10 43  1  0  0  0  0
 11 44  1  0  0  0  0
 11 45  1  0  0  0  0
 12 13  1  0  0  0  0
 12 46  1  0  0  0  0
 12 47  1  0  0  0  0
 13 14  1  0  0  0  0
 13 48  1  0  0  0  0
 13 49  1  0  0  0  0
 14 15  1  0  0  0  0
 14 50  1  0  0  0  0
 14 51  1  0  0  0  0
 15 17  1  0  0  0  0
 15 52  1  0  0  0  0
 15 53  1  0  0  0  0
 16 18  2  0  0  0  0
 16 19  1  0  0  0  0
 17 54  1  0  0  0  0
 17 55  1  0  0  0  0
 18 25  1  0  0  0  0
 18 56  1  0  0  0  0
 19 27  2  0  0  0  0
 19 57  1  0  0  0  0
 20 23  1  0  0  0  0
 20 24  1  0  0  0  0
 20 26  2  0  0  0  0
 21 23  1  0  0  0  0
 22 24  1  0  0  0  0
 23 29  2  0  0  0  0
 24 30  2  0  0  0  0
 25 28  2  0  0  0  0
 26 31  1  0  0  0  0
 26 32  1  0  0  0  0
 27 28  1  0  0  0  0
 27 58  1  0  0  0  0
 28 59  1  0  0  0  0
 29 33  1  0  0  0  0
 29 60  1  0  0  0  0
 30 34  1  0  0  0  0
 30 61  1  0  0  0  0
 31 33  2  0  0  0  0
 31 62  1  0  0  0  0
 32 34  2  0  0  0  0
 32 63  1  0  0  0  0
 33 64  1  0  0  0  0
 34 65  1  0  0  0  0
 35 66  1  0  0  0  0
 35 67  1  0  0  0  0
 35 68  1  0  0  0  0
M  END
> <PUBCHEM_COMPOUND_CID>
155547436

> <PUBCHEM_COMPOUND_CANONICALIZED>
1

> <PUBCHEM_CACTVS_COMPLEXITY>
692

> <PUBCHEM_CACTVS_HBOND_ACCEPTOR>
5

> <PUBCHEM_CACTVS_HBOND_DONOR>
0

> <PUBCHEM_CACTVS_ROTATABLE_BOND>
9

> <PUBCHEM_CACTVS_SUBSKEYS>
AAADcfB7MAAAAAAAAAAAAAAAAAAAAAAAAAA8eMECAAAAAADxVAAAHgAAAAAADAzBmAYyxsMABACIAiVSUACCCAAlIgAIiAEObMgMZjLEtZuUMShmxjnI6YeY28OOgAACAgAQAAAAAAQEACAAAAAAAAAAAA==

> <PUBCHEM_IUPAC_OPENEYE_NAME>
2-[6-[4-(3-methoxyphenyl)piperazin-1-yl]hexyl]benzo[de]isoquinoline-1,3-dione

> <PUBCHEM_IUPAC_CAS_NAME>
2-[6-[4-(3-methoxyphenyl)-1-piperazinyl]hexyl]benzo[de]isoquinoline-1,3-dione

> <PUBCHEM_IUPAC_NAME_MARKUP>
2-[6-[4-(3-methoxyphenyl)piperazin-1-yl]hexyl]benzo[de]isoquinoline-1,3-dione

> <PUBCHEM_IUPAC_NAME>
2-[6-[4-(3-methoxyphenyl)piperazin-1-yl]hexyl]benzo[de]isoquinoline-1,3-dione

> <PUBCHEM_IUPAC_SYSTEMATIC_NAME>
2-[6-[4-(3-methoxyphenyl)piperazin-1-yl]hexyl]benzo[de]isoquinoline-1,3-dione

> <PUBCHEM_IUPAC_TRADITIONAL_NAME>
2-[6-[4-(3-methoxyphenyl)piperazino]hexyl]benzo[de]isoquinoline-1,3-quinone

> <PUBCHEM_IUPAC_INCHI>
InChI=1S/C29H33N3O3/c1-35-24-12-8-11-23(21-24)31-19-17-30(18-20-31)15-4-2-3-5-16-32-28(33)25-13-6-9-22-10-7-14-26(27(22)25)29(32)34/h6-14,21H,2-5,15-20H2,1H3

> <PUBCHEM_IUPAC_INCHIKEY>
KQYVDEWSKFDTLI-UHFFFAOYSA-N

> <PUBCHEM_XLOGP3_AA>
5.2

> <PUBCHEM_EXACT_MASS>
471.25219192

> <PUBCHEM_MOLECULAR_FORMULA>
C29H33N3O3

> <PUBCHEM_MOLECULAR_WEIGHT>
471.6

> <PUBCHEM_OPENEYE_CAN_SMILES>
COC1=CC=CC(=C1)N2CCN(CC2)CCCCCCN3C(=O)C4=CC=CC5=C4C(=CC=C5)C3=O

> <PUBCHEM_OPENEYE_ISO_SMILES>
COC1=CC=CC(=C1)N2CCN(CC2)CCCCCCN3C(=O)C4=CC=CC5=C4C(=CC=C5)C3=O

> <PUBCHEM_CACTVS_TPSA>
53.1

> <PUBCHEM_MONOISOTOPIC_WEIGHT>
471.25219192

> <PUBCHEM_TOTAL_CHARGE>
0

> <PUBCHEM_HEAVY_ATOM_COUNT>
35

> <PUBCHEM_ATOM_DEF_STEREO_COUNT>
0

> <PUBCHEM_ATOM_UDEF_STEREO_COUNT>
0

> <PUBCHEM_BOND_DEF_STEREO_COUNT>
0

> <PUBCHEM_BOND_UDEF_STEREO_COUNT>
0

> <PUBCHEM_ISOTOPIC_ATOM_COUNT>
0

> <PUBCHEM_COMPONENT_COUNT>
1

> <PUBCHEM_CACTVS_TAUTO_COUNT>
-1

> <PUBCHEM_COORDINATE_TYPE>
1
5
255

> <PUBCHEM_BONDANNOTATIONS>
16  18  8
16  19  8
18  25  8
19  27  8
20  23  8
20  24  8
20  26  8
23  29  8
24  30  8
25  28  8
26  31  8
26  32  8
27  28  8
29  33  8
30  34  8
31  33  8
32  34  8

$$$$
