44454371
  -OEChem-09292322492D

 57 61  0     1  0  0  0  0  0999 V2000
    8.2062    1.7644    0.0000 S   0  0  0  0  0  0  0  0  0  0  0  0
    3.4887   -4.5520    0.0000 O   0  0  0  0  0  0  0  0  0  0  0  0
    5.2062    0.0323    0.0000 N   0  0  3  0  0  0  0  0  0  0  0  0
    2.0949   -3.7472    0.0000 N   0  0  0  0  0  0  0  0  0  0  0  0
    9.7008    2.7349    0.0000 N   0  0  0  0  0  0  0  0  0  0  0  0
    8.2995    3.5439    0.0000 N   0  0  0  0  0  0  0  0  0  0  0  0
    9.0426    4.2131    0.0000 N   0  0  0  0  0  0  0  0  0  0  0  0
   12.5448    3.9388    0.0000 N   0  0  0  0  0  0  0  0  0  0  0  0
    5.7598   -0.7773    0.0000 C   0  0  0  0  0  0  0  0  0  0  0  0
    4.2283    0.1069    0.0000 C   0  0  0  0  0  0  0  0  0  0  0  0
    5.4745   -1.7157    0.0000 C   0  0  0  0  0  0  0  0  0  0  0  0
    3.5583   -0.6094    0.0000 C   0  0  0  0  0  0  0  0  0  0  0  0
    4.5640   -2.0802    0.0000 C   0  0  0  0  0  0  0  0  0  0  0  0
    3.6979   -1.5802    0.0000 C   0  0  0  0  0  0  0  0  0  0  0  0
    5.7062    0.8983    0.0000 C   0  0  0  0  0  0  0  0  0  0  0  0
    6.7062    0.8983    0.0000 C   0  0  0  0  0  0  0  0  0  0  0  0
    4.5640   -3.0802    0.0000 C   0  0  0  0  0  0  0  0  0  0  0  0
    2.8319   -2.0802    0.0000 C   0  0  0  0  0  0  0  0  0  0  0  0
    3.6979   -3.5802    0.0000 C   0  0  0  0  0  0  0  0  0  0  0  0
    2.8319   -3.0802    0.0000 C   0  0  0  0  0  0  0  0  0  0  0  0
    7.2062    1.7644    0.0000 C   0  0  0  0  0  0  0  0  0  0  0  0
    2.5000   -4.6550    0.0000 C   0  0  0  0  0  0  0  0  0  0  0  0
    8.7062    2.6304    0.0000 C   0  0  0  0  0  0  0  0  0  0  0  0
    2.0000   -5.5210    0.0000 C   0  0  0  0  0  0  0  0  0  0  0  0
    9.9087    3.7131    0.0000 C   0  0  0  0  0  0  0  0  0  0  0  0
   10.3699    1.9918    0.0000 C   0  0  0  0  0  0  0  0  0  0  0  0
   10.8222    4.1198    0.0000 C   0  0  0  0  0  0  0  0  0  0  0  0
   10.9267    5.1143    0.0000 C   0  0  0  0  0  0  0  0  0  0  0  0
   11.6312    3.5320    0.0000 C   0  0  0  0  0  0  0  0  0  0  0  0
   11.8403    5.5210    0.0000 C   0  0  0  0  0  0  0  0  0  0  0  0
   12.6493    4.9333    0.0000 C   0  0  0  0  0  0  0  0  0  0  0  0
    6.2977   -1.0856    0.0000 H   0  0  0  0  0  0  0  0  0  0  0  0
    6.1805   -0.3219    0.0000 H   0  0  0  0  0  0  0  0  0  0  0  0
    4.4124    0.6990    0.0000 H   0  0  0  0  0  0  0  0  0  0  0  0
    3.6923    0.4186    0.0000 H   0  0  0  0  0  0  0  0  0  0  0  0
    5.5705   -2.3282    0.0000 H   0  0  0  0  0  0  0  0  0  0  0  0
    6.0930   -1.7590    0.0000 H   0  0  0  0  0  0  0  0  0  0  0  0
    3.2116   -0.0954    0.0000 H   0  0  0  0  0  0  0  0  0  0  0  0
    2.9798   -0.8325    0.0000 H   0  0  0  0  0  0  0  0  0  0  0  0
    5.8139    1.5089    0.0000 H   0  0  0  0  0  0  0  0  0  0  0  0
    5.1236    1.1104    0.0000 H   0  0  0  0  0  0  0  0  0  0  0  0
    6.5986    0.2878    0.0000 H   0  0  0  0  0  0  0  0  0  0  0  0
    7.2888    0.6863    0.0000 H   0  0  0  0  0  0  0  0  0  0  0  0
    5.1009   -3.3902    0.0000 H   0  0  0  0  0  0  0  0  0  0  0  0
    2.2950   -1.7702    0.0000 H   0  0  0  0  0  0  0  0  0  0  0  0
    7.3139    2.3749    0.0000 H   0  0  0  0  0  0  0  0  0  0  0  0
    6.6236    1.9764    0.0000 H   0  0  0  0  0  0  0  0  0  0  0  0
    1.4631   -5.2110    0.0000 H   0  0  0  0  0  0  0  0  0  0  0  0
    1.6900   -6.0580    0.0000 H   0  0  0  0  0  0  0  0  0  0  0  0
    2.5369   -5.8310    0.0000 H   0  0  0  0  0  0  0  0  0  0  0  0
    9.9091    1.5769    0.0000 H   0  0  0  0  0  0  0  0  0  0  0  0
   10.7847    1.5310    0.0000 H   0  0  0  0  0  0  0  0  0  0  0  0
   10.8306    2.4066    0.0000 H   0  0  0  0  0  0  0  0  0  0  0  0
   10.4251    5.4787    0.0000 H   0  0  0  0  0  0  0  0  0  0  0  0
   11.5664    2.9154    0.0000 H   0  0  0  0  0  0  0  0  0  0  0  0
   11.9051    6.1377    0.0000 H   0  0  0  0  0  0  0  0  0  0  0  0
   13.2157    5.1854    0.0000 H   0  0  0  0  0  0  0  0  0  0  0  0
  1 21  1  0  0  0  0
  1 23  1  0  0  0  0
  2 19  1  0  0  0  0
  2 22  1  0  0  0  0
  3  9  1  0  0  0  0
  3 10  1  0  0  0  0
  3 15  1  0  0  0  0
  4 20  1  0  0  0  0
  4 22  2  0  0  0  0
  5 23  1  0  0  0  0
  5 25  1  0  0  0  0
  5 26  1  0  0  0  0
  6  7  1  0  0  0  0
  6 23  2  0  0  0  0
  7 25  2  0  0  0  0
  8 29  1  0  0  0  0
  8 31  2  0  0  0  0
  9 11  1  0  0  0  0
  9 32  1  0  0  0  0
  9 33  1  0  0  0  0
 10 12  1  0  0  0  0
 10 34  1  0  0  0  0
 10 35  1  0  0  0  0
 11 13  1  0  0  0  0
 11 36  1  0  0  0  0
 11 37  1  0  0  0  0
 12 14  1  0  0  0  0
 12 38  1  0  0  0  0
 12 39  1  0  0  0  0
 13 14  1  0  0  0  0
 13 17  2  0  0  0  0
 14 18  2  0  0  0  0
 15 16  1  0  0  0  0
 15 40  1  0  0  0  0
 15 41  1  0  0  0  0
 16 21  1  0  0  0  0
 16 42  1  0  0  0  0
 16 43  1  0  0  0  0
 17 19  1  0  0  0  0
 17 44  1  0  0  0  0
 18 20  1  0  0  0  0
 18 45  1  0  0  0  0
 19 20  2  0  0  0  0
 21 46  1  0  0  0  0
 21 47  1  0  0  0  0
 22 24  1  0  0  0  0
 24 48  1  0  0  0  0
 24 49  1  0  0  0  0
 24 50  1  0  0  0  0
 25 27  1  0  0  0  0
 26 51  1  0  0  0  0
 26 52  1  0  0  0  0
 26 53  1  0  0  0  0
 27 28  1  0  0  0  0
 27 29  2  0  0  0  0
 28 30  2  0  0  0  0
 28 54  1  0  0  0  0
 29 55  1  0  0  0  0
 30 31  1  0  0  0  0
 30 56  1  0  0  0  0
 31 57  1  0  0  0  0
M  END
> <PUBCHEM_COMPOUND_CID>
44454371

> <PUBCHEM_COMPOUND_CANONICALIZED>
1

> <PUBCHEM_CACTVS_COMPLEXITY>
584

> <PUBCHEM_CACTVS_HBOND_ACCEPTOR>
7

> <PUBCHEM_CACTVS_HBOND_DONOR>
0

> <PUBCHEM_CACTVS_ROTATABLE_BOND>
6

> <PUBCHEM_CACTVS_SUBSKEYS>
AAADceB7oABAAAAAAAAAAAAAAAAAAWLAAAA8QAAABYAAAFgB/gAAHgQIAAAADAzF3wS/1rcMFEiqA7d3dASS2Ct/YrAd2CG/bNiOLvLk/buPOSjkzBPY6YeY2bKOqAABQAAQEABQAAKAACAgAAAAAAAAAA==

> <PUBCHEM_IUPAC_OPENEYE_NAME>
2-methyl-7-[3-[[4-methyl-5-(3-pyridyl)-1,2,4-triazol-3-yl]sulfanyl]propyl]-5,6,8,9-tetrahydrooxazolo[4,5-h][3]benzazepine

> <PUBCHEM_IUPAC_CAS_NAME>
2-methyl-7-[3-[[4-methyl-5-(3-pyridinyl)-1,2,4-triazol-3-yl]thio]propyl]-5,6,8,9-tetrahydrooxazolo[4,5-h][3]benzazepine

> <PUBCHEM_IUPAC_NAME_MARKUP>
2-methyl-7-[3-[(4-methyl-5-pyridin-3-yl-1,2,4-triazol-3-yl)sulfanyl]propyl]-5,6,8,9-tetrahydro-[1,3]oxazolo[4,5-h][3]benzazepine

> <PUBCHEM_IUPAC_NAME>
2-methyl-7-[3-[(4-methyl-5-pyridin-3-yl-1,2,4-triazol-3-yl)sulfanyl]propyl]-5,6,8,9-tetrahydro-[1,3]oxazolo[4,5-h][3]benzazepine

> <PUBCHEM_IUPAC_SYSTEMATIC_NAME>
2-methyl-7-[3-[(4-methyl-5-pyridin-3-yl-1,2,4-triazol-3-yl)sulfanyl]propyl]-5,6,8,9-tetrahydro-[1,3]oxazolo[4,5-h][3]benzazepine

> <PUBCHEM_IUPAC_TRADITIONAL_NAME>
2-methyl-7-[3-[[4-methyl-5-(3-pyridyl)-1,2,4-triazol-3-yl]thio]propyl]-5,6,8,9-tetrahydrooxazolo[4,5-h][3]benzazepine

> <PUBCHEM_IUPAC_INCHI>
InChI=1S/C23H26N6OS/c1-16-25-20-13-17-6-10-29(11-7-18(17)14-21(20)30-16)9-4-12-31-23-27-26-22(28(23)2)19-5-3-8-24-15-19/h3,5,8,13-15H,4,6-7,9-12H2,1-2H3

> <PUBCHEM_IUPAC_INCHIKEY>
CVPRWHZDWBRVGS-UHFFFAOYSA-N

> <PUBCHEM_XLOGP3_AA>
3.5

> <PUBCHEM_EXACT_MASS>
434.18888065

> <PUBCHEM_MOLECULAR_FORMULA>
C23H26N6OS

> <PUBCHEM_MOLECULAR_WEIGHT>
434.6

> <PUBCHEM_OPENEYE_CAN_SMILES>
CC1=NC2=C(O1)C=C3CCN(CCC3=C2)CCCSC4=NN=C(N4C)C5=CN=CC=C5

> <PUBCHEM_OPENEYE_ISO_SMILES>
CC1=NC2=C(O1)C=C3CCN(CCC3=C2)CCCSC4=NN=C(N4C)C5=CN=CC=C5

> <PUBCHEM_CACTVS_TPSA>
98.2

> <PUBCHEM_MONOISOTOPIC_WEIGHT>
434.18888065

> <PUBCHEM_TOTAL_CHARGE>
0

> <PUBCHEM_HEAVY_ATOM_COUNT>
31

> <PUBCHEM_ATOM_DEF_STEREO_COUNT>
0

> <PUBCHEM_ATOM_UDEF_STEREO_COUNT>
0

> <PUBCHEM_BOND_DEF_STEREO_COUNT>
0

> <PUBCHEM_BOND_UDEF_STEREO_COUNT>
0

> <PUBCHEM_ISOTOPIC_ATOM_COUNT>
0

> <PUBCHEM_COMPONENT_COUNT>
1

> <PUBCHEM_CACTVS_TAUTO_COUNT>
-1

> <PUBCHEM_COORDINATE_TYPE>
1
5
255

> <PUBCHEM_BONDANNOTATIONS>
13  14  8
13  17  8
14  18  8
17  19  8
18  20  8
19  20  8
2  19  8
2  22  8
27  28  8
27  29  8
28  30  8
30  31  8
4  20  8
4  22  8
5  23  8
5  25  8
6  23  8
6  7  8
7  25  8
8  29  8
8  31  8

$$$$
