155566271
  -OEChem-09292322082D

 66 70  0     1  0  0  0  0  0999 V2000
   13.3224    1.1977    0.0000 O   0  0  0  0  0  0  0  0  0  0  0  0
   17.2633   -3.2323    0.0000 O   0  0  0  0  0  0  0  0  0  0  0  0
    7.2602    1.6977    0.0000 N   0  0  3  0  0  0  0  0  0  0  0  0
   12.4564   -0.3023    0.0000 N   0  0  0  0  0  0  0  0  0  0  0  0
   15.0962    0.1028    0.0000 N   0  0  0  0  0  0  0  0  0  0  0  0
    2.0000    0.6702    0.0000 N   0  0  0  0  0  0  0  0  0  0  0  0
    9.8583    1.1977    0.0000 C   0  0  0  0  0  0  0  0  0  0  0  0
    9.8583    0.1977    0.0000 C   0  0  0  0  0  0  0  0  0  0  0  0
   10.7243    1.6977    0.0000 C   0  0  0  0  0  0  0  0  0  0  0  0
   11.5904    0.1977    0.0000 C   0  0  0  0  0  0  0  0  0  0  0  0
   10.7243   -0.3023    0.0000 C   0  0  0  0  0  0  0  0  0  0  0  0
   11.5904    1.1977    0.0000 C   0  0  0  0  0  0  0  0  0  0  0  0
    8.9923    1.6977    0.0000 C   0  0  0  0  0  0  0  0  0  0  0  0
    8.1263    1.1977    0.0000 C   0  0  0  0  0  0  0  0  0  0  0  0
    7.2602    2.6977    0.0000 C   0  0  0  0  0  0  0  0  0  0  0  0
    6.3942    1.1977    0.0000 C   0  0  0  0  0  0  0  0  0  0  0  0
    6.3942    3.1977    0.0000 C   0  0  0  0  0  0  0  0  0  0  0  0
    5.5282    1.6977    0.0000 C   0  0  0  0  0  0  0  0  0  0  0  0
    5.5282    2.6977    0.0000 C   0  0  0  0  0  0  0  0  0  0  0  0
   13.3224    0.1977    0.0000 C   0  0  0  0  0  0  0  0  0  0  0  0
    4.6342    1.1630    0.0000 C   0  0  0  0  0  0  0  0  0  0  0  0
   14.1884   -0.3023    0.0000 C   0  0  0  0  0  0  0  0  0  0  0  0
    4.6342    3.2323    0.0000 C   0  0  0  0  0  0  0  0  0  0  0  0
    3.7282    1.6768    0.0000 C   0  0  0  0  0  0  0  0  0  0  0  0
    3.7282    2.7185    0.0000 C   0  0  0  0  0  0  0  0  0  0  0  0
   14.2915   -1.2911    0.0000 C   0  0  0  0  0  0  0  0  0  0  0  0
   15.2633   -1.5003    0.0000 C   0  0  0  0  0  0  0  0  0  0  0  0
   15.7633   -0.6342    0.0000 C   0  0  0  0  0  0  0  0  0  0  0  0
   15.7633   -2.3663    0.0000 C   0  0  0  0  0  0  0  0  0  0  0  0
   16.7633   -0.6342    0.0000 C   0  0  0  0  0  0  0  0  0  0  0  0
    2.8641    1.1735    0.0000 C   0  0  0  0  0  0  0  0  0  0  0  0
   16.7633   -2.3663    0.0000 C   0  0  0  0  0  0  0  0  0  0  0  0
   17.2633   -1.5003    0.0000 C   0  0  0  0  0  0  0  0  0  0  0  0
   18.2633   -3.2323    0.0000 C   0  0  0  0  0  0  0  0  0  0  0  0
    9.3214    0.8877    0.0000 H   0  0  0  0  0  0  0  0  0  0  0  0
    9.2477    0.3053    0.0000 H   0  0  0  0  0  0  0  0  0  0  0  0
    9.6463   -0.3850    0.0000 H   0  0  0  0  0  0  0  0  0  0  0  0
   11.1229    2.1726    0.0000 H   0  0  0  0  0  0  0  0  0  0  0  0
   10.3258    2.1726    0.0000 H   0  0  0  0  0  0  0  0  0  0  0  0
   12.1273    0.5077    0.0000 H   0  0  0  0  0  0  0  0  0  0  0  0
   10.3258   -0.7773    0.0000 H   0  0  0  0  0  0  0  0  0  0  0  0
   11.1229   -0.7773    0.0000 H   0  0  0  0  0  0  0  0  0  0  0  0
   12.2010    1.0900    0.0000 H   0  0  0  0  0  0  0  0  0  0  0  0
   11.8024    1.7803    0.0000 H   0  0  0  0  0  0  0  0  0  0  0  0
    9.3908    2.1726    0.0000 H   0  0  0  0  0  0  0  0  0  0  0  0
    8.5938    2.1726    0.0000 H   0  0  0  0  0  0  0  0  0  0  0  0
    7.7277    0.7227    0.0000 H   0  0  0  0  0  0  0  0  0  0  0  0
    8.5248    0.7227    0.0000 H   0  0  0  0  0  0  0  0  0  0  0  0
   12.4564   -0.9223    0.0000 H   0  0  0  0  0  0  0  0  0  0  0  0
    7.8708    2.5900    0.0000 H   0  0  0  0  0  0  0  0  0  0  0  0
    7.4723    3.2803    0.0000 H   0  0  0  0  0  0  0  0  0  0  0  0
    5.9957    0.7227    0.0000 H   0  0  0  0  0  0  0  0  0  0  0  0
    6.7928    0.7227    0.0000 H   0  0  0  0  0  0  0  0  0  0  0  0
    6.7928    3.6726    0.0000 H   0  0  0  0  0  0  0  0  0  0  0  0
    5.9957    3.6726    0.0000 H   0  0  0  0  0  0  0  0  0  0  0  0
    4.6414    0.5430    0.0000 H   0  0  0  0  0  0  0  0  0  0  0  0
    4.6414    3.8523    0.0000 H   0  0  0  0  0  0  0  0  0  0  0  0
    3.1924    3.0305    0.0000 H   0  0  0  0  0  0  0  0  0  0  0  0
   13.8300   -1.7051    0.0000 H   0  0  0  0  0  0  0  0  0  0  0  0
   15.2241    0.7094    0.0000 H   0  0  0  0  0  0  0  0  0  0  0  0
   15.4533   -2.9032    0.0000 H   0  0  0  0  0  0  0  0  0  0  0  0
   17.0733   -0.0973    0.0000 H   0  0  0  0  0  0  0  0  0  0  0  0
   17.8833   -1.5003    0.0000 H   0  0  0  0  0  0  0  0  0  0  0  0
   18.2633   -3.8523    0.0000 H   0  0  0  0  0  0  0  0  0  0  0  0
   18.8833   -3.2323    0.0000 H   0  0  0  0  0  0  0  0  0  0  0  0
   18.2633   -2.6123    0.0000 H   0  0  0  0  0  0  0  0  0  0  0  0
  1 20  2  0  0  0  0
  2 32  1  0  0  0  0
  2 34  1  0  0  0  0
  3 14  1  0  0  0  0
  3 15  1  0  0  0  0
  3 16  1  0  0  0  0
  4 10  1  0  0  0  0
  4 20  1  0  0  0  0
  4 49  1  0  0  0  0
  5 22  1  0  0  0  0
  5 28  1  0  0  0  0
  5 60  1  0  0  0  0
  6 31  3  0  0  0  0
  7  8  1  0  0  0  0
  7  9  1  0  0  0  0
  7 13  1  0  0  0  0
  7 35  1  0  0  0  0
  8 11  1  0  0  0  0
  8 36  1  0  0  0  0
  8 37  1  0  0  0  0
  9 12  1  0  0  0  0
  9 38  1  0  0  0  0
  9 39  1  0  0  0  0
 10 11  1  0  0  0  0
 10 12  1  0  0  0  0
 10 40  1  0  0  0  0
 11 41  1  0  0  0  0
 11 42  1  0  0  0  0
 12 43  1  0  0  0  0
 12 44  1  0  0  0  0
 13 14  1  0  0  0  0
 13 45  1  0  0  0  0
 13 46  1  0  0  0  0
 14 47  1  0  0  0  0
 14 48  1  0  0  0  0
 15 17  1  0  0  0  0
 15 50  1  0  0  0  0
 15 51  1  0  0  0  0
 16 18  1  0  0  0  0
 16 52  1  0  0  0  0
 16 53  1  0  0  0  0
 17 19  1  0  0  0  0
 17 54  1  0  0  0  0
 17 55  1  0  0  0  0
 18 19  2  0  0  0  0
 18 21  1  0  0  0  0
 19 23  1  0  0  0  0
 20 22  1  0  0  0  0
 21 24  2  0  0  0  0
 21 56  1  0  0  0  0
 22 26  2  0  0  0  0
 23 25  2  0  0  0  0
 23 57  1  0  0  0  0
 24 25  1  0  0  0  0
 24 31  1  0  0  0  0
 25 58  1  0  0  0  0
 26 27  1  0  0  0  0
 26 59  1  0  0  0  0
 27 28  2  0  0  0  0
 27 29  1  0  0  0  0
 28 30  1  0  0  0  0
 29 32  2  0  0  0  0
 29 61  1  0  0  0  0
 30 33  2  0  0  0  0
 30 62  1  0  0  0  0
 32 33  1  0  0  0  0
 33 63  1  0  0  0  0
 34 64  1  0  0  0  0
 34 65  1  0  0  0  0
 34 66  1  0  0  0  0
M  END
> <PUBCHEM_COMPOUND_CID>
155566271

> <PUBCHEM_COMPOUND_CANONICALIZED>
1

> <PUBCHEM_CACTVS_COMPLEXITY>
742

> <PUBCHEM_CACTVS_HBOND_ACCEPTOR>
4

> <PUBCHEM_CACTVS_HBOND_DONOR>
2

> <PUBCHEM_CACTVS_ROTATABLE_BOND>
6

> <PUBCHEM_CACTVS_SUBSKEYS>
AAADcfB7sAAAAAAAAAAAAAAAAAAAAWAAAAA8YMEAAAAAAFix9AAAHgAQAAAADSzBngYyxvPJlAC4ByVyVACiiCAnIiAImaG+bNgM5vLEtbuUMShk1hHI6Y+42fOewEADAAASAACQgAYAACQAAAAAAAAAAA==

> <PUBCHEM_IUPAC_OPENEYE_NAME>
N-[4-[2-(7-cyano-3,4-dihydro-1H-isoquinolin-2-yl)ethyl]cyclohexyl]-5-methoxy-1H-indole-2-carboxamide

> <PUBCHEM_IUPAC_CAS_NAME>
N-[4-[2-(7-cyano-3,4-dihydro-1H-isoquinolin-2-yl)ethyl]cyclohexyl]-5-methoxy-1H-indole-2-carboxamide

> <PUBCHEM_IUPAC_NAME_MARKUP>
<I>N</I>-[4-[2-(7-cyano-3,4-dihydro-1<I>H</I>-isoquinolin-2-yl)ethyl]cyclohexyl]-5-methoxy-1<I>H</I>-indole-2-carboxamide

> <PUBCHEM_IUPAC_NAME>
N-[4-[2-(7-cyano-3,4-dihydro-1H-isoquinolin-2-yl)ethyl]cyclohexyl]-5-methoxy-1H-indole-2-carboxamide

> <PUBCHEM_IUPAC_SYSTEMATIC_NAME>
N-[4-[2-(7-cyano-3,4-dihydro-1H-isoquinolin-2-yl)ethyl]cyclohexyl]-5-methoxy-1H-indole-2-carboxamide

> <PUBCHEM_IUPAC_TRADITIONAL_NAME>
N-[4-[2-(7-cyano-3,4-dihydro-1H-isoquinolin-2-yl)ethyl]cyclohexyl]-5-methoxy-1H-indole-2-carboxamide

> <PUBCHEM_IUPAC_INCHI>
InChI=1S/C28H32N4O2/c1-34-25-8-9-26-22(15-25)16-27(31-26)28(33)30-24-6-3-19(4-7-24)10-12-32-13-11-21-5-2-20(17-29)14-23(21)18-32/h2,5,8-9,14-16,19,24,31H,3-4,6-7,10-13,18H2,1H3,(H,30,33)

> <PUBCHEM_IUPAC_INCHIKEY>
UQYFTPHMOYIVEW-UHFFFAOYSA-N

> <PUBCHEM_XLOGP3_AA>
4.8

> <PUBCHEM_EXACT_MASS>
456.25252628

> <PUBCHEM_MOLECULAR_FORMULA>
C28H32N4O2

> <PUBCHEM_MOLECULAR_WEIGHT>
456.6

> <PUBCHEM_OPENEYE_CAN_SMILES>
COC1=CC2=C(C=C1)NC(=C2)C(=O)NC3CCC(CC3)CCN4CCC5=C(C4)C=C(C=C5)C#N

> <PUBCHEM_OPENEYE_ISO_SMILES>
COC1=CC2=C(C=C1)NC(=C2)C(=O)NC3CCC(CC3)CCN4CCC5=C(C4)C=C(C=C5)C#N

> <PUBCHEM_CACTVS_TPSA>
81.2

> <PUBCHEM_MONOISOTOPIC_WEIGHT>
456.25252628

> <PUBCHEM_TOTAL_CHARGE>
0

> <PUBCHEM_HEAVY_ATOM_COUNT>
34

> <PUBCHEM_ATOM_DEF_STEREO_COUNT>
0

> <PUBCHEM_ATOM_UDEF_STEREO_COUNT>
0

> <PUBCHEM_BOND_DEF_STEREO_COUNT>
0

> <PUBCHEM_BOND_UDEF_STEREO_COUNT>
0

> <PUBCHEM_ISOTOPIC_ATOM_COUNT>
0

> <PUBCHEM_COMPONENT_COUNT>
1

> <PUBCHEM_CACTVS_TAUTO_COUNT>
-1

> <PUBCHEM_COORDINATE_TYPE>
1
5
255

> <PUBCHEM_BONDANNOTATIONS>
18  19  8
18  21  8
19  23  8
21  24  8
22  26  8
23  25  8
24  25  8
26  27  8
27  28  8
27  29  8
28  30  8
29  32  8
30  33  8
32  33  8
5  22  8
5  28  8

$$$$
