127047229
  -OEChem-09292322002D

 52 54  0     1  0  0  0  0  0999 V2000
    4.8714    2.2369    0.0000 O   0  0  0  0  0  0  0  0  0  0  0  0
    4.6660    0.4913    0.0000 N   0  0  0  0  0  0  0  0  0  0  0  0
    6.3981   -1.5087    0.0000 N   0  0  0  0  0  0  0  0  0  0  0  0
    3.3073    1.4352    0.0000 N   0  0  0  0  0  0  0  0  0  0  0  0
    5.5321   -1.0087    0.0000 C   0  0  1  0  0  0  0  0  0  0  0  0
    5.5321   -0.0087    0.0000 C   0  0  0  0  0  0  0  0  0  0  0  0
    4.6660   -1.5087    0.0000 C   0  0  0  0  0  0  0  0  0  0  0  0
    3.8000   -0.0087    0.0000 C   0  0  0  0  0  0  0  0  0  0  0  0
    3.8000   -1.0087    0.0000 C   0  0  0  0  0  0  0  0  0  0  0  0
    2.9061    0.5260    0.0000 C   0  0  0  0  0  0  0  0  0  0  0  0
    4.3009    1.4156    0.0000 C   0  0  0  0  0  0  0  0  0  0  0  0
    6.3981   -2.5087    0.0000 C   0  0  0  0  0  0  0  0  0  0  0  0
    7.2641   -1.0087    0.0000 C   0  0  0  0  0  0  0  0  0  0  0  0
    2.9061   -1.5433    0.0000 C   0  0  0  0  0  0  0  0  0  0  0  0
    2.7696    2.2783    0.0000 C   0  0  0  0  0  0  0  0  0  0  0  0
    2.0000    0.0121    0.0000 C   0  0  0  0  0  0  0  0  0  0  0  0
    7.2641   -3.0087    0.0000 C   0  0  0  0  0  0  0  0  0  0  0  0
    8.1301   -1.5087    0.0000 C   0  0  0  0  0  0  0  0  0  0  0  0
    2.0000   -1.0295    0.0000 C   0  0  0  0  0  0  0  0  0  0  0  0
    3.2308    3.1656    0.0000 C   0  0  0  0  0  0  0  0  0  0  0  0
    7.2641   -4.0087    0.0000 C   0  0  0  0  0  0  0  0  0  0  0  0
    8.9962   -1.0087    0.0000 C   0  0  0  0  0  0  0  0  0  0  0  0
    2.6931    4.0087    0.0000 C   0  0  0  0  0  0  0  0  0  0  0  0
    5.5321   -1.6287    0.0000 H   0  0  0  0  0  0  0  0  0  0  0  0
    6.1426   -0.1163    0.0000 H   0  0  0  0  0  0  0  0  0  0  0  0
    5.7441    0.5739    0.0000 H   0  0  0  0  0  0  0  0  0  0  0  0
    4.2675   -1.9836    0.0000 H   0  0  0  0  0  0  0  0  0  0  0  0
    5.0646   -1.9836    0.0000 H   0  0  0  0  0  0  0  0  0  0  0  0
    5.7875   -2.4010    0.0000 H   0  0  0  0  0  0  0  0  0  0  0  0
    6.1860   -3.0913    0.0000 H   0  0  0  0  0  0  0  0  0  0  0  0
    7.6626   -0.5337    0.0000 H   0  0  0  0  0  0  0  0  0  0  0  0
    6.8656   -0.5337    0.0000 H   0  0  0  0  0  0  0  0  0  0  0  0
    2.9132   -2.1633    0.0000 H   0  0  0  0  0  0  0  0  0  0  0  0
    2.2775    2.6555    0.0000 H   0  0  0  0  0  0  0  0  0  0  0  0
    2.3127    1.8592    0.0000 H   0  0  0  0  0  0  0  0  0  0  0  0
    1.4643    0.3242    0.0000 H   0  0  0  0  0  0  0  0  0  0  0  0
    7.8747   -3.1163    0.0000 H   0  0  0  0  0  0  0  0  0  0  0  0
    7.4762   -2.4261    0.0000 H   0  0  0  0  0  0  0  0  0  0  0  0
    7.7316   -1.9836    0.0000 H   0  0  0  0  0  0  0  0  0  0  0  0
    8.5287   -1.9836    0.0000 H   0  0  0  0  0  0  0  0  0  0  0  0
    1.4643   -1.3416    0.0000 H   0  0  0  0  0  0  0  0  0  0  0  0
    3.7229    2.7884    0.0000 H   0  0  0  0  0  0  0  0  0  0  0  0
    3.6877    3.5847    0.0000 H   0  0  0  0  0  0  0  0  0  0  0  0
    6.6441   -4.0087    0.0000 H   0  0  0  0  0  0  0  0  0  0  0  0
    7.2641   -4.6287    0.0000 H   0  0  0  0  0  0  0  0  0  0  0  0
    7.8841   -4.0087    0.0000 H   0  0  0  0  0  0  0  0  0  0  0  0
    9.3062   -1.5456    0.0000 H   0  0  0  0  0  0  0  0  0  0  0  0
    9.5331   -0.6987    0.0000 H   0  0  0  0  0  0  0  0  0  0  0  0
    8.6862   -0.4717    0.0000 H   0  0  0  0  0  0  0  0  0  0  0  0
    3.2158    4.3421    0.0000 H   0  0  0  0  0  0  0  0  0  0  0  0
    2.3597    4.5314    0.0000 H   0  0  0  0  0  0  0  0  0  0  0  0
    2.1704    3.6753    0.0000 H   0  0  0  0  0  0  0  0  0  0  0  0
  1 11  2  0  0  0  0
  2  6  1  0  0  0  0
  2  8  1  0  0  0  0
  2 11  1  0  0  0  0
  5  3  1  6  0  0  0
  3 12  1  0  0  0  0
  3 13  1  0  0  0  0
  4 10  1  0  0  0  0
  4 11  1  0  0  0  0
  4 15  1  0  0  0  0
  5  6  1  0  0  0  0
  5  7  1  0  0  0  0
  5 24  1  0  0  0  0
  6 25  1  0  0  0  0
  6 26  1  0  0  0  0
  7  9  1  0  0  0  0
  7 27  1  0  0  0  0
  7 28  1  0  0  0  0
  8  9  2  0  0  0  0
  8 10  1  0  0  0  0
  9 14  1  0  0  0  0
 10 16  2  0  0  0  0
 12 17  1  0  0  0  0
 12 29  1  0  0  0  0
 12 30  1  0  0  0  0
 13 18  1  0  0  0  0
 13 31  1  0  0  0  0
 13 32  1  0  0  0  0
 14 19  2  0  0  0  0
 14 33  1  0  0  0  0
 15 20  1  0  0  0  0
 15 34  1  0  0  0  0
 15 35  1  0  0  0  0
 16 19  1  0  0  0  0
 16 36  1  0  0  0  0
 17 21  1  0  0  0  0
 17 37  1  0  0  0  0
 17 38  1  0  0  0  0
 18 22  1  0  0  0  0
 18 39  1  0  0  0  0
 18 40  1  0  0  0  0
 19 41  1  0  0  0  0
 20 23  1  0  0  0  0
 20 42  1  0  0  0  0
 20 43  1  0  0  0  0
 21 44  1  0  0  0  0
 21 45  1  0  0  0  0
 21 46  1  0  0  0  0
 22 47  1  0  0  0  0
 22 48  1  0  0  0  0
 22 49  1  0  0  0  0
 23 50  1  0  0  0  0
 23 51  1  0  0  0  0
 23 52  1  0  0  0  0
M  END
> <PUBCHEM_COMPOUND_CID>
127047229

> <PUBCHEM_COMPOUND_CANONICALIZED>
1

> <PUBCHEM_CACTVS_COMPLEXITY>
407

> <PUBCHEM_CACTVS_HBOND_ACCEPTOR>
2

> <PUBCHEM_CACTVS_HBOND_DONOR>
0

> <PUBCHEM_CACTVS_ROTATABLE_BOND>
7

> <PUBCHEM_CACTVS_SUBSKEYS>
AAADceB7IAAAAAAAAAAAAAAAAAAAAWAAAAA8QAAAAAAAAFixAAAAHgAAAAAADCjBGAQzwIMAAACIAiRCUACCAAAhAgAIiAAIdIiIYCLAkZGUIAhohgLIyCcQgIAOAAAAQAACACAAAACAAAQAQAAAAAAAAA==

> <PUBCHEM_IUPAC_OPENEYE_NAME>
(10R)-10-(dipropylamino)-3-propyl-1,3-diazatricyclo[6.3.1.04,12]dodeca-4,6,8(12)-trien-2-one

> <PUBCHEM_IUPAC_CAS_NAME>
(10R)-10-(dipropylamino)-3-propyl-1,3-diazatricyclo[6.3.1.04,12]dodeca-4,6,8(12)-trien-2-one

> <PUBCHEM_IUPAC_NAME_MARKUP>
(10<I>R</I>)-10-(dipropylamino)-3-propyl-1,3-diazatricyclo[6.3.1.0<SUP>4,12</SUP>]dodeca-4,6,8(12)-trien-2-one

> <PUBCHEM_IUPAC_NAME>
(10R)-10-(dipropylamino)-3-propyl-1,3-diazatricyclo[6.3.1.04,12]dodeca-4,6,8(12)-trien-2-one

> <PUBCHEM_IUPAC_SYSTEMATIC_NAME>
(10R)-10-(dipropylamino)-3-propyl-1,3-diazatricyclo[6.3.1.04,12]dodeca-4,6,8(12)-trien-2-one

> <PUBCHEM_IUPAC_TRADITIONAL_NAME>
(10R)-10-(dipropylamino)-3-propyl-1,3-diazatricyclo[6.3.1.04,12]dodeca-4,6,8(12)-trien-2-one

> <PUBCHEM_IUPAC_INCHI>
InChI=1S/C19H29N3O/c1-4-10-20(11-5-2)16-13-15-8-7-9-17-18(15)22(14-16)19(23)21(17)12-6-3/h7-9,16H,4-6,10-14H2,1-3H3/t16-/m1/s1

> <PUBCHEM_IUPAC_INCHIKEY>
FOWVILAPRCJMGP-MRXNPFEDSA-N

> <PUBCHEM_XLOGP3_AA>
3.7

> <PUBCHEM_EXACT_MASS>
315.231062557

> <PUBCHEM_MOLECULAR_FORMULA>
C19H29N3O

> <PUBCHEM_MOLECULAR_WEIGHT>
315.5

> <PUBCHEM_OPENEYE_CAN_SMILES>
CCCN1C2=CC=CC3=C2N(C1=O)CC(C3)N(CCC)CCC

> <PUBCHEM_OPENEYE_ISO_SMILES>
CCCN1C2=CC=CC3=C2N(C1=O)C[C@@H](C3)N(CCC)CCC

> <PUBCHEM_CACTVS_TPSA>
26.8

> <PUBCHEM_MONOISOTOPIC_WEIGHT>
315.231062557

> <PUBCHEM_TOTAL_CHARGE>
0

> <PUBCHEM_HEAVY_ATOM_COUNT>
23

> <PUBCHEM_ATOM_DEF_STEREO_COUNT>
1

> <PUBCHEM_ATOM_UDEF_STEREO_COUNT>
0

> <PUBCHEM_BOND_DEF_STEREO_COUNT>
0

> <PUBCHEM_BOND_UDEF_STEREO_COUNT>
0

> <PUBCHEM_ISOTOPIC_ATOM_COUNT>
0

> <PUBCHEM_COMPONENT_COUNT>
1

> <PUBCHEM_CACTVS_TAUTO_COUNT>
-1

> <PUBCHEM_COORDINATE_TYPE>
1
5
255

> <PUBCHEM_BONDANNOTATIONS>
10  16  8
14  19  8
16  19  8
2  11  8
2  8  8
5  3  6
4  10  8
4  11  8
8  10  8
8  9  8
9  14  8

$$$$
