44330574
  -OEChem-09292322512D

 36 39  0     0  0  0  0  0  0999 V2000
    2.7812    0.0491    0.0000 Cl  0  0  0  0  0  0  0  0  0  0  0  0
    2.0000    3.4716    0.0000 Cl  0  0  0  0  0  0  0  0  0  0  0  0
    2.1245    1.6996    0.0000 S   0  0  0  0  0  0  0  0  0  0  0  0
    4.7642    0.1340    0.0000 N   0  0  0  0  0  0  0  0  0  0  0  0
    5.7424   -0.0427    0.0000 N   0  0  0  0  0  0  0  0  0  0  0  0
    5.7517    2.5275    0.0000 C   0  0  0  0  0  0  0  0  0  0  0  0
    4.6282    1.1187    0.0000 C   0  0  0  0  0  0  0  0  0  0  0  0
    5.1282    3.3093    0.0000 C   0  0  0  0  0  0  0  0  0  0  0  0
    5.5291    1.5526    0.0000 C   0  0  0  0  0  0  0  0  0  0  0  0
    4.1282    3.3093    0.0000 C   0  0  0  0  0  0  0  0  0  0  0  0
    3.7272    1.5526    0.0000 C   0  0  0  0  0  0  0  0  0  0  0  0
    3.5047    2.5275    0.0000 C   0  0  0  0  0  0  0  0  0  0  0  0
    6.2142    0.8323    0.0000 C   0  0  0  0  0  0  0  0  0  0  0  0
    4.0426   -0.5584    0.0000 C   0  0  0  0  0  0  0  0  0  0  0  0
    2.8725    1.0449    0.0000 C   0  0  0  0  0  0  0  0  0  0  0  0
    2.5144    2.6140    0.0000 C   0  0  0  0  0  0  0  0  0  0  0  0
    4.2813   -1.5294    0.0000 C   0  0  0  0  0  0  0  0  0  0  0  0
    5.2417   -1.8082    0.0000 C   0  0  0  0  0  0  0  0  0  0  0  0
    3.5597   -2.2218    0.0000 C   0  0  0  0  0  0  0  0  0  0  0  0
    5.4805   -2.7793    0.0000 C   0  0  0  0  0  0  0  0  0  0  0  0
    3.7985   -3.1928    0.0000 C   0  0  0  0  0  0  0  0  0  0  0  0
    4.7589   -3.4716    0.0000 C   0  0  0  0  0  0  0  0  0  0  0  0
    6.3103    2.2585    0.0000 H   0  0  0  0  0  0  0  0  0  0  0  0
    6.1382    3.0122    0.0000 H   0  0  0  0  0  0  0  0  0  0  0  0
    5.6868    3.5783    0.0000 H   0  0  0  0  0  0  0  0  0  0  0  0
    4.9902    3.9138    0.0000 H   0  0  0  0  0  0  0  0  0  0  0  0
    4.2661    3.9138    0.0000 H   0  0  0  0  0  0  0  0  0  0  0  0
    3.5696    3.5783    0.0000 H   0  0  0  0  0  0  0  0  0  0  0  0
    6.8288    0.9144    0.0000 H   0  0  0  0  0  0  0  0  0  0  0  0
    3.6976   -0.0432    0.0000 H   0  0  0  0  0  0  0  0  0  0  0  0
    3.4754   -0.8087    0.0000 H   0  0  0  0  0  0  0  0  0  0  0  0
    5.6891   -1.3790    0.0000 H   0  0  0  0  0  0  0  0  0  0  0  0
    2.9643   -2.0489    0.0000 H   0  0  0  0  0  0  0  0  0  0  0  0
    6.0759   -2.9521    0.0000 H   0  0  0  0  0  0  0  0  0  0  0  0
    3.3511   -3.6221    0.0000 H   0  0  0  0  0  0  0  0  0  0  0  0
    4.9069   -4.0737    0.0000 H   0  0  0  0  0  0  0  0  0  0  0  0
  1 15  1  0  0  0  0
  2 16  1  0  0  0  0
  3 15  1  0  0  0  0
  3 16  1  0  0  0  0
  4  5  1  0  0  0  0
  4  7  1  0  0  0  0
  4 14  1  0  0  0  0
  5 13  2  0  0  0  0
  6  8  1  0  0  0  0
  6  9  1  0  0  0  0
  6 23  1  0  0  0  0
  6 24  1  0  0  0  0
  7  9  2  0  0  0  0
  7 11  1  0  0  0  0
  8 10  1  0  0  0  0
  8 25  1  0  0  0  0
  8 26  1  0  0  0  0
  9 13  1  0  0  0  0
 10 12  1  0  0  0  0
 10 27  1  0  0  0  0
 10 28  1  0  0  0  0
 11 12  1  0  0  0  0
 11 15  2  0  0  0  0
 12 16  2  0  0  0  0
 13 29  1  0  0  0  0
 14 17  1  0  0  0  0
 14 30  1  0  0  0  0
 14 31  1  0  0  0  0
 17 18  2  0  0  0  0
 17 19  1  0  0  0  0
 18 20  1  0  0  0  0
 18 32  1  0  0  0  0
 19 21  2  0  0  0  0
 19 33  1  0  0  0  0
 20 22  2  0  0  0  0
 20 34  1  0  0  0  0
 21 22  1  0  0  0  0
 21 35  1  0  0  0  0
 22 36  1  0  0  0  0
M  END
> <PUBCHEM_COMPOUND_CID>
44330574

> <PUBCHEM_COMPOUND_CANONICALIZED>
1

> <PUBCHEM_CACTVS_COMPLEXITY>
391

> <PUBCHEM_CACTVS_HBOND_ACCEPTOR>
2

> <PUBCHEM_CACTVS_HBOND_DONOR>
0

> <PUBCHEM_CACTVS_ROTATABLE_BOND>
2

> <PUBCHEM_CACTVS_SUBSKEYS>
AAADccB7AABGAAAAAAAAAAAAAAAAAWJAAAAwAAAABgAAAACx8AAAHAYIAAAADArBXiQ8gZIIAAimAzRnRACTBIAhjBAY2DAoRpgIIKLh09GEpAhgiADoyAcQgMAOgAAAAAAAAAAAAAAAAAAAAAAAAAAAAA==

> <PUBCHEM_IUPAC_OPENEYE_NAME>
3-benzyl-11,13-dichloro-12-thia-3,4-diazatricyclo[8.3.0.02,6]trideca-1(13),2(6),4,10-tetraene

> <PUBCHEM_IUPAC_CAS_NAME>
11,13-dichloro-3-(phenylmethyl)-12-thia-3,4-diazatricyclo[8.3.0.02,6]trideca-1(13),2(6),4,10-tetraene

> <PUBCHEM_IUPAC_NAME_MARKUP>
3-benzyl-11,13-dichloro-12-thia-3,4-diazatricyclo[8.3.0.0<SUP>2,6</SUP>]trideca-1(13),2(6),4,10-tetraene

> <PUBCHEM_IUPAC_NAME>
3-benzyl-11,13-dichloro-12-thia-3,4-diazatricyclo[8.3.0.02,6]trideca-1(13),2(6),4,10-tetraene

> <PUBCHEM_IUPAC_SYSTEMATIC_NAME>
11,13-bis(chloranyl)-3-(phenylmethyl)-12-thia-3,4-diazatricyclo[8.3.0.02,6]trideca-1(13),2(6),4,10-tetraene

> <PUBCHEM_IUPAC_TRADITIONAL_NAME>
3-benzyl-11,13-dichloro-12-thia-3,4-diazatricyclo[8.3.0.02,6]trideca-1(13),2(6),4,10-tetraene

> <PUBCHEM_IUPAC_INCHI>
InChI=1S/C17H14Cl2N2S/c18-16-13-8-4-7-12-9-20-21(10-11-5-2-1-3-6-11)15(12)14(13)17(19)22-16/h1-3,5-6,9H,4,7-8,10H2

> <PUBCHEM_IUPAC_INCHIKEY>
CQBJEPBMMZYRSM-UHFFFAOYSA-N

> <PUBCHEM_XLOGP3_AA>
5.9

> <PUBCHEM_EXACT_MASS>
348.0254750

> <PUBCHEM_MOLECULAR_FORMULA>
C17H14Cl2N2S

> <PUBCHEM_MOLECULAR_WEIGHT>
349.3

> <PUBCHEM_OPENEYE_CAN_SMILES>
C1CC2=C(C3=C(SC(=C3C1)Cl)Cl)N(N=C2)CC4=CC=CC=C4

> <PUBCHEM_OPENEYE_ISO_SMILES>
C1CC2=C(C3=C(SC(=C3C1)Cl)Cl)N(N=C2)CC4=CC=CC=C4

> <PUBCHEM_CACTVS_TPSA>
46.1

> <PUBCHEM_MONOISOTOPIC_WEIGHT>
348.0254750

> <PUBCHEM_TOTAL_CHARGE>
0

> <PUBCHEM_HEAVY_ATOM_COUNT>
22

> <PUBCHEM_ATOM_DEF_STEREO_COUNT>
0

> <PUBCHEM_ATOM_UDEF_STEREO_COUNT>
0

> <PUBCHEM_BOND_DEF_STEREO_COUNT>
0

> <PUBCHEM_BOND_UDEF_STEREO_COUNT>
0

> <PUBCHEM_ISOTOPIC_ATOM_COUNT>
0

> <PUBCHEM_COMPONENT_COUNT>
1

> <PUBCHEM_CACTVS_TAUTO_COUNT>
-1

> <PUBCHEM_COORDINATE_TYPE>
1
5
255

> <PUBCHEM_BONDANNOTATIONS>
11  12  8
11  15  8
12  16  8
17  18  8
17  19  8
18  20  8
19  21  8
20  22  8
21  22  8
3  15  8
3  16  8
4  5  8
4  7  8
5  13  8
7  9  8
9  13  8

$$$$
