25895959
  -OEChem-09292322152D

 52 55  0     0  0  0  0  0  0999 V2000
   12.8562   -3.5252    0.0000 Cl  0  0  0  0  0  0  0  0  0  0  0  0
    6.0531    0.5637    0.0000 O   0  0  0  0  0  0  0  0  0  0  0  0
    2.0000    2.5633    0.0000 O   0  5  0  0  0  0  0  0  0  0  0  0
    2.8660    1.0633    0.0000 O   0  0  0  0  0  0  0  0  0  0  0  0
    8.0102    0.1513    0.0000 N   0  0  0  0  0  0  0  0  0  0  0  0
    8.6315   -1.7498    0.0000 N   0  0  0  0  0  0  0  0  0  0  0  0
    6.4103    2.2585    0.0000 N   0  0  0  0  0  0  0  0  0  0  0  0
    2.8660    2.0633    0.0000 N   0  3  0  0  0  0  0  0  0  0  0  0
    8.9887   -0.0550    0.0000 C   0  0  0  0  0  0  0  0  0  0  0  0
    7.3423   -0.5930    0.0000 C   0  0  0  0  0  0  0  0  0  0  0  0
    9.2993   -1.0055    0.0000 C   0  0  0  0  0  0  0  0  0  0  0  0
    7.6530   -1.5436    0.0000 C   0  0  0  0  0  0  0  0  0  0  0  0
    7.6995    1.1018    0.0000 C   0  0  0  0  0  0  0  0  0  0  0  0
    8.9421   -2.7003    0.0000 C   0  0  0  0  0  0  0  0  0  0  0  0
    6.9939    3.0633    0.0000 C   0  0  0  0  0  0  0  0  0  0  0  0
    6.7210    1.3080    0.0000 C   0  0  0  0  0  0  0  0  0  0  0  0
    6.4103    3.8680    0.0000 C   0  0  0  0  0  0  0  0  0  0  0  0
    5.4641    2.5633    0.0000 C   0  0  0  0  0  0  0  0  0  0  0  0
    5.4641    3.5633    0.0000 C   0  0  0  0  0  0  0  0  0  0  0  0
    9.9206   -2.9065    0.0000 C   0  0  0  0  0  0  0  0  0  0  0  0
    4.5981    2.0633    0.0000 C   0  0  0  0  0  0  0  0  0  0  0  0
    4.5981    4.0633    0.0000 C   0  0  0  0  0  0  0  0  0  0  0  0
    3.7320    2.5633    0.0000 C   0  0  0  0  0  0  0  0  0  0  0  0
    3.7320    3.5633    0.0000 C   0  0  0  0  0  0  0  0  0  0  0  0
   10.5885   -2.1622    0.0000 C   0  0  0  0  0  0  0  0  0  0  0  0
   10.2313   -3.8570    0.0000 C   0  0  0  0  0  0  0  0  0  0  0  0
   11.5670   -2.3684    0.0000 C   0  0  0  0  0  0  0  0  0  0  0  0
   11.2098   -4.0633    0.0000 C   0  0  0  0  0  0  0  0  0  0  0  0
   11.8777   -3.3190    0.0000 C   0  0  0  0  0  0  0  0  0  0  0  0
    9.6025    0.0324    0.0000 H   0  0  0  0  0  0  0  0  0  0  0  0
    9.0092    0.5647    0.0000 H   0  0  0  0  0  0  0  0  0  0  0  0
    6.9598   -0.1051    0.0000 H   0  0  0  0  0  0  0  0  0  0  0  0
    6.7954   -0.8851    0.0000 H   0  0  0  0  0  0  0  0  0  0  0  0
    9.6819   -1.4934    0.0000 H   0  0  0  0  0  0  0  0  0  0  0  0
    9.8462   -0.7135    0.0000 H   0  0  0  0  0  0  0  0  0  0  0  0
    7.0392   -1.6309    0.0000 H   0  0  0  0  0  0  0  0  0  0  0  0
    7.6324   -2.1632    0.0000 H   0  0  0  0  0  0  0  0  0  0  0  0
    8.3133    1.1891    0.0000 H   0  0  0  0  0  0  0  0  0  0  0  0
    7.7201    1.7214    0.0000 H   0  0  0  0  0  0  0  0  0  0  0  0
    8.3283   -2.7877    0.0000 H   0  0  0  0  0  0  0  0  0  0  0  0
    8.9216   -3.3200    0.0000 H   0  0  0  0  0  0  0  0  0  0  0  0
    7.4548    2.6485    0.0000 H   0  0  0  0  0  0  0  0  0  0  0  0
    7.4548    3.4780    0.0000 H   0  0  0  0  0  0  0  0  0  0  0  0
    6.9477    4.1772    0.0000 H   0  0  0  0  0  0  0  0  0  0  0  0
    6.1593    4.4349    0.0000 H   0  0  0  0  0  0  0  0  0  0  0  0
    4.5981    1.4433    0.0000 H   0  0  0  0  0  0  0  0  0  0  0  0
    4.5981    4.6833    0.0000 H   0  0  0  0  0  0  0  0  0  0  0  0
    3.1951    3.8733    0.0000 H   0  0  0  0  0  0  0  0  0  0  0  0
   10.3959   -1.5729    0.0000 H   0  0  0  0  0  0  0  0  0  0  0  0
    9.8172   -4.3185    0.0000 H   0  0  0  0  0  0  0  0  0  0  0  0
   11.9811   -1.9070    0.0000 H   0  0  0  0  0  0  0  0  0  0  0  0
   11.4024   -4.6526    0.0000 H   0  0  0  0  0  0  0  0  0  0  0  0
  1 29  1  0  0  0  0
  2 16  2  0  0  0  0
  3  8  1  0  0  0  0
  4  8  2  0  0  0  0
  5  9  1  0  0  0  0
  5 10  1  0  0  0  0
  5 13  1  0  0  0  0
  6 11  1  0  0  0  0
  6 12  1  0  0  0  0
  6 14  1  0  0  0  0
  7 15  1  0  0  0  0
  7 16  1  0  0  0  0
  7 18  1  0  0  0  0
  8 23  1  0  0  0  0
  9 11  1  0  0  0  0
  9 30  1  0  0  0  0
  9 31  1  0  0  0  0
 10 12  1  0  0  0  0
 10 32  1  0  0  0  0
 10 33  1  0  0  0  0
 11 34  1  0  0  0  0
 11 35  1  0  0  0  0
 12 36  1  0  0  0  0
 12 37  1  0  0  0  0
 13 16  1  0  0  0  0
 13 38  1  0  0  0  0
 13 39  1  0  0  0  0
 14 20  1  0  0  0  0
 14 40  1  0  0  0  0
 14 41  1  0  0  0  0
 15 17  1  0  0  0  0
 15 42  1  0  0  0  0
 15 43  1  0  0  0  0
 17 19  1  0  0  0  0
 17 44  1  0  0  0  0
 17 45  1  0  0  0  0
 18 19  2  0  0  0  0
 18 21  1  0  0  0  0
 19 22  1  0  0  0  0
 20 25  2  0  0  0  0
 20 26  1  0  0  0  0
 21 23  2  0  0  0  0
 21 46  1  0  0  0  0
 22 24  2  0  0  0  0
 22 47  1  0  0  0  0
 23 24  1  0  0  0  0
 24 48  1  0  0  0  0
 25 27  1  0  0  0  0
 25 49  1  0  0  0  0
 26 28  2  0  0  0  0
 26 50  1  0  0  0  0
 27 29  2  0  0  0  0
 27 51  1  0  0  0  0
 28 29  1  0  0  0  0
 28 52  1  0  0  0  0
M  CHG  2   3  -1   8   1
M  END
> <PUBCHEM_COMPOUND_CID>
25895959

> <PUBCHEM_COMPOUND_CANONICALIZED>
1

> <PUBCHEM_CACTVS_COMPLEXITY>
585

> <PUBCHEM_CACTVS_HBOND_ACCEPTOR>
5

> <PUBCHEM_CACTVS_HBOND_DONOR>
0

> <PUBCHEM_CACTVS_ROTATABLE_BOND>
4

> <PUBCHEM_CACTVS_SUBSKEYS>
AAADceB7sAAEAAAAAAAAAAAAAAAAAWAAAAA8YIAAAAAAAFgBQAAAHgIEAAAADArBmCQwwIMQQACJAiVSUwCCAAAhBwAoiACIZooIYCLB0/GUIAhghgDIyAcQgIAODAAAAAQCAAAYAAAACAQAAAAAAAAAAA==

> <PUBCHEM_IUPAC_OPENEYE_NAME>
2-[4-[(4-chlorophenyl)methyl]piperazin-1-yl]-1-(6-nitroindolin-1-yl)ethanone

> <PUBCHEM_IUPAC_CAS_NAME>
2-[4-[(4-chlorophenyl)methyl]-1-piperazinyl]-1-(6-nitro-2,3-dihydroindol-1-yl)ethanone

> <PUBCHEM_IUPAC_NAME_MARKUP>
2-[4-[(4-chlorophenyl)methyl]piperazin-1-yl]-1-(6-nitro-2,3-dihydroindol-1-yl)ethanone

> <PUBCHEM_IUPAC_NAME>
2-[4-[(4-chlorophenyl)methyl]piperazin-1-yl]-1-(6-nitro-2,3-dihydroindol-1-yl)ethanone

> <PUBCHEM_IUPAC_SYSTEMATIC_NAME>
2-[4-[(4-chlorophenyl)methyl]piperazin-1-yl]-1-(6-nitro-2,3-dihydroindol-1-yl)ethanone

> <PUBCHEM_IUPAC_TRADITIONAL_NAME>
2-[4-(4-chlorobenzyl)piperazino]-1-(6-nitroindolin-1-yl)ethanone

> <PUBCHEM_IUPAC_INCHI>
InChI=1S/C21H23ClN4O3/c22-18-4-1-16(2-5-18)14-23-9-11-24(12-10-23)15-21(27)25-8-7-17-3-6-19(26(28)29)13-20(17)25/h1-6,13H,7-12,14-15H2

> <PUBCHEM_IUPAC_INCHIKEY>
GMYMGBFWJJHMIQ-UHFFFAOYSA-N

> <PUBCHEM_XLOGP3_AA>
3.1

> <PUBCHEM_EXACT_MASS>
414.1458683

> <PUBCHEM_MOLECULAR_FORMULA>
C21H23ClN4O3

> <PUBCHEM_MOLECULAR_WEIGHT>
414.9

> <PUBCHEM_OPENEYE_CAN_SMILES>
C1CN(C2=C1C=CC(=C2)[N+](=O)[O-])C(=O)CN3CCN(CC3)CC4=CC=C(C=C4)Cl

> <PUBCHEM_OPENEYE_ISO_SMILES>
C1CN(C2=C1C=CC(=C2)[N+](=O)[O-])C(=O)CN3CCN(CC3)CC4=CC=C(C=C4)Cl

> <PUBCHEM_CACTVS_TPSA>
72.6

> <PUBCHEM_MONOISOTOPIC_WEIGHT>
414.1458683

> <PUBCHEM_TOTAL_CHARGE>
0

> <PUBCHEM_HEAVY_ATOM_COUNT>
29

> <PUBCHEM_ATOM_DEF_STEREO_COUNT>
0

> <PUBCHEM_ATOM_UDEF_STEREO_COUNT>
0

> <PUBCHEM_BOND_DEF_STEREO_COUNT>
0

> <PUBCHEM_BOND_UDEF_STEREO_COUNT>
0

> <PUBCHEM_ISOTOPIC_ATOM_COUNT>
0

> <PUBCHEM_COMPONENT_COUNT>
1

> <PUBCHEM_CACTVS_TAUTO_COUNT>
-1

> <PUBCHEM_COORDINATE_TYPE>
1
5
255

> <PUBCHEM_BONDANNOTATIONS>
18  19  8
18  21  8
19  22  8
20  25  8
20  26  8
21  23  8
22  24  8
23  24  8
25  27  8
26  28  8
27  29  8
28  29  8

$$$$
