168297278
  -OEChem-09292322022D

 49 48  0     1  0  0  0  0  0999 V2000
    8.9427    6.6612    0.0000 Cl  0  0  0  0  0  0  0  0  0  0  0  0
    8.9427    4.1612    0.0000 Cl  0  0  0  0  0  0  0  0  0  0  0  0
    2.0281    9.7133    0.0000 S   0  0  0  0  0  0  0  0  0  0  0  0
    3.8076    5.6200    0.0000 O   0  0  0  0  0  0  0  0  0  0  0  0
    4.6737    4.1200    0.0000 N   0  0  0  0  0  0  0  0  0  0  0  0
    5.5397    5.6200    0.0000 N   0  0  0  0  0  0  0  0  0  0  0  0
    4.6737    7.1200    0.0000 N   0  0  0  0  0  0  0  0  0  0  0  0
    2.8371   11.1145    0.0000 N   0  0  0  0  0  0  0  0  0  0  0  0
    6.4057    7.1200    0.0000 N   0  0  0  0  0  0  0  0  0  0  0  0
    1.8590   11.3224    0.0000 N   0  0  0  0  0  0  0  0  0  0  0  0
    0.3644   10.3519    0.0000 N   0  0  0  0  0  0  0  0  0  0  0  0
    3.8076    3.6200    0.0000 C   0  0  1  0  0  0  0  0  0  0  0  0
    3.8076    2.6200    0.0000 C   0  0  0  0  0  0  0  0  0  0  0  0
    3.8076    8.6200    0.0000 C   0  0  0  0  0  0  0  0  0  0  0  0
    2.9416    4.1200    0.0000 C   0  0  0  0  0  0  0  0  0  0  0  0
    3.8076    9.6200    0.0000 C   0  0  0  0  0  0  0  0  0  0  0  0
    4.6737    8.1200    0.0000 C   0  0  0  0  0  0  0  0  0  0  0  0
    4.6737    2.1200    0.0000 C   0  0  0  0  0  0  0  0  0  0  0  0
    2.9416    2.1200    0.0000 C   0  0  0  0  0  0  0  0  0  0  0  0
    4.6737    5.1200    0.0000 C   0  0  0  0  0  0  0  0  0  0  0  0
    2.9416   10.1200    0.0000 C   0  0  0  0  0  0  0  0  0  0  0  0
    4.6737    1.1200    0.0000 C   0  0  0  0  0  0  0  0  0  0  0  0
    2.9416    1.1200    0.0000 C   0  0  0  0  0  0  0  0  0  0  0  0
    3.8076    0.6200    0.0000 C   0  0  0  0  0  0  0  0  0  0  0  0
    5.5397    6.6200    0.0000 C   0  0  0  0  0  0  0  0  0  0  0  0
    1.3590   10.4564    0.0000 C   0  0  0  0  0  0  0  0  0  0  0  0
    4.3446    3.3100    0.0000 H   0  0  0  0  0  0  0  0  0  0  0  0
    3.1971    8.7277    0.0000 H   0  0  0  0  0  0  0  0  0  0  0  0
    3.5956    8.0374    0.0000 H   0  0  0  0  0  0  0  0  0  0  0  0
    3.2516    4.6569    0.0000 H   0  0  0  0  0  0  0  0  0  0  0  0
    2.4047    4.4300    0.0000 H   0  0  0  0  0  0  0  0  0  0  0  0
    2.6316    3.5831    0.0000 H   0  0  0  0  0  0  0  0  0  0  0  0
    5.2106    3.8100    0.0000 H   0  0  0  0  0  0  0  0  0  0  0  0
    4.4182    9.5123    0.0000 H   0  0  0  0  0  0  0  0  0  0  0  0
    4.0197   10.2026    0.0000 H   0  0  0  0  0  0  0  0  0  0  0  0
    5.2843    8.0123    0.0000 H   0  0  0  0  0  0  0  0  0  0  0  0
    4.8857    8.7026    0.0000 H   0  0  0  0  0  0  0  0  0  0  0  0
    5.2106    2.4300    0.0000 H   0  0  0  0  0  0  0  0  0  0  0  0
    2.4047    2.4300    0.0000 H   0  0  0  0  0  0  0  0  0  0  0  0
    5.2106    0.8100    0.0000 H   0  0  0  0  0  0  0  0  0  0  0  0
    2.4047    0.8100    0.0000 H   0  0  0  0  0  0  0  0  0  0  0  0
    6.0766    5.3100    0.0000 H   0  0  0  0  0  0  0  0  0  0  0  0
    3.8076    0.0000    0.0000 H   0  0  0  0  0  0  0  0  0  0  0  0
    6.4057    7.7400    0.0000 H   0  0  0  0  0  0  0  0  0  0  0  0
    6.9427    6.8100    0.0000 H   0  0  0  0  0  0  0  0  0  0  0  0
    0.0000   10.8535    0.0000 H   0  0  0  0  0  0  0  0  0  0  0  0
    0.1122    9.7855    0.0000 H   0  0  0  0  0  0  0  0  0  0  0  0
    9.9427    6.6612    0.0000 H   0  0  0  0  0  0  0  0  0  0  0  0
    9.9427    4.1612    0.0000 H   0  0  0  0  0  0  0  0  0  0  0  0
  1 48  1  0  0  0  0
  2 49  1  0  0  0  0
  3 21  1  0  0  0  0
  3 26  1  0  0  0  0
  4 20  2  0  0  0  0
 12  5  1  1  0  0  0
  5 20  1  0  0  0  0
  5 33  1  0  0  0  0
  6 20  1  0  0  0  0
  6 25  1  0  0  0  0
  6 42  1  0  0  0  0
  7 17  1  0  0  0  0
  7 25  2  0  0  0  0
  8 10  1  0  0  0  0
  8 21  2  0  0  0  0
  9 25  1  0  0  0  0
  9 44  1  0  0  0  0
  9 45  1  0  0  0  0
 10 26  2  0  0  0  0
 11 26  1  0  0  0  0
 11 46  1  0  0  0  0
 11 47  1  0  0  0  0
 12 13  1  0  0  0  0
 12 15  1  0  0  0  0
 12 27  1  0  0  0  0
 13 18  2  0  0  0  0
 13 19  1  0  0  0  0
 14 16  1  0  0  0  0
 14 17  1  0  0  0  0
 14 28  1  0  0  0  0
 14 29  1  0  0  0  0
 15 30  1  0  0  0  0
 15 31  1  0  0  0  0
 15 32  1  0  0  0  0
 16 21  1  0  0  0  0
 16 34  1  0  0  0  0
 16 35  1  0  0  0  0
 17 36  1  0  0  0  0
 17 37  1  0  0  0  0
 18 22  1  0  0  0  0
 18 38  1  0  0  0  0
 19 23  2  0  0  0  0
 19 39  1  0  0  0  0
 22 24  2  0  0  0  0
 22 40  1  0  0  0  0
 23 24  1  0  0  0  0
 23 41  1  0  0  0  0
 24 43  1  0  0  0  0
M  END
> <PUBCHEM_COMPOUND_CID>
168297278

> <PUBCHEM_COMPOUND_CANONICALIZED>
1

> <PUBCHEM_CACTVS_COMPLEXITY>
428

> <PUBCHEM_CACTVS_HBOND_ACCEPTOR>
6

> <PUBCHEM_CACTVS_HBOND_DONOR>
6

> <PUBCHEM_CACTVS_ROTATABLE_BOND>
7

> <PUBCHEM_CACTVS_SUBSKEYS>
AAADceBzoABGAAAAAAAAAAAAAAAAAWAAAAAwAAAAAAAAAAABwAAAHgQYAAAADCjBWgQzEILAAAiuAiBiNACSAINgABEdiIA4BIiIICKgkRGEIAh4nwIIiAcQgIAOAAAAAAAAAAAAAAAAAAAAAAAAAAAAAA==

> <PUBCHEM_IUPAC_OPENEYE_NAME>
1-[N'-[3-(5-amino-1,3,4-thiadiazol-2-yl)propyl]carbamimidoyl]-3-[(1R)-1-phenylethyl]urea;dihydrochloride

> <PUBCHEM_IUPAC_CAS_NAME>
1-[amino-[3-(5-amino-1,3,4-thiadiazol-2-yl)propylimino]methyl]-3-[(1R)-1-phenylethyl]urea;dihydrochloride

> <PUBCHEM_IUPAC_NAME_MARKUP>
1-[<I>N</I>&apos;-[3-(5-amino-1,3,4-thiadiazol-2-yl)propyl]carbamimidoyl]-3-[(1<I>R</I>)-1-phenylethyl]urea;dihydrochloride

> <PUBCHEM_IUPAC_NAME>
1-[N'-[3-(5-amino-1,3,4-thiadiazol-2-yl)propyl]carbamimidoyl]-3-[(1R)-1-phenylethyl]urea;dihydrochloride

> <PUBCHEM_IUPAC_SYSTEMATIC_NAME>
1-[N'-[3-(5-azanyl-1,3,4-thiadiazol-2-yl)propyl]carbamimidoyl]-3-[(1R)-1-phenylethyl]urea;dihydrochloride

> <PUBCHEM_IUPAC_TRADITIONAL_NAME>
1-[N'-[3-(5-amino-1,3,4-thiadiazol-2-yl)propyl]amidino]-3-[(1R)-1-phenylethyl]urea;dihydrochloride

> <PUBCHEM_IUPAC_INCHI>
InChI=1S/C15H21N7OS.2ClH/c1-10(11-6-3-2-4-7-11)19-15(23)20-13(16)18-9-5-8-12-21-22-14(17)24-12;;/h2-4,6-7,10H,5,8-9H2,1H3,(H2,17,22)(H4,16,18,19,20,23);2*1H/t10-;;/m1../s1

> <PUBCHEM_IUPAC_INCHIKEY>
YQZTUEBEBYMUAM-YQFADDPSSA-N

> <PUBCHEM_EXACT_MASS>
419.1061849

> <PUBCHEM_MOLECULAR_FORMULA>
C15H23Cl2N7OS

> <PUBCHEM_MOLECULAR_WEIGHT>
420.4

> <PUBCHEM_OPENEYE_CAN_SMILES>
CC(C1=CC=CC=C1)NC(=O)NC(=NCCCC2=NN=C(S2)N)N.Cl.Cl

> <PUBCHEM_OPENEYE_ISO_SMILES>
C[C@H](C1=CC=CC=C1)NC(=O)NC(=NCCCC2=NN=C(S2)N)N.Cl.Cl

> <PUBCHEM_CACTVS_TPSA>
160

> <PUBCHEM_MONOISOTOPIC_WEIGHT>
419.1061849

> <PUBCHEM_TOTAL_CHARGE>
0

> <PUBCHEM_HEAVY_ATOM_COUNT>
26

> <PUBCHEM_ATOM_DEF_STEREO_COUNT>
1

> <PUBCHEM_ATOM_UDEF_STEREO_COUNT>
0

> <PUBCHEM_BOND_DEF_STEREO_COUNT>
0

> <PUBCHEM_BOND_UDEF_STEREO_COUNT>
0

> <PUBCHEM_ISOTOPIC_ATOM_COUNT>
0

> <PUBCHEM_COMPONENT_COUNT>
3

> <PUBCHEM_CACTVS_TAUTO_COUNT>
-1

> <PUBCHEM_COORDINATE_TYPE>
1
5
255

> <PUBCHEM_BONDANNOTATIONS>
10  26  8
13  18  8
13  19  8
18  22  8
19  23  8
22  24  8
23  24  8
3  21  8
3  26  8
12  5  5
8  10  8
8  21  8

$$$$
