127042185
  -OEChem-09292322362D

 62 65  0     1  0  0  0  0  0999 V2000
    6.3301    3.8988    0.0000 S   0  0  0  0  0  0  0  0  0  0  0  0
    5.8301    4.7648    0.0000 O   0  0  0  0  0  0  0  0  0  0  0  0
    6.8301    3.0328    0.0000 O   0  0  0  0  0  0  0  0  0  0  0  0
    4.5981   -2.1012    0.0000 O   0  0  0  0  0  0  0  0  0  0  0  0
    5.4641    0.3988    0.0000 N   0  0  0  0  0  0  0  0  0  0  0  0
    5.4641    3.3988    0.0000 N   0  0  3  0  0  0  0  0  0  0  0  0
    8.7788    4.7352    0.0000 N   0  0  0  0  0  0  0  0  0  0  0  0
    8.2788    5.6012    0.0000 N   0  0  0  0  0  0  0  0  0  0  0  0
    5.4641    2.3988    0.0000 C   0  0  0  0  0  0  0  0  0  0  0  0
    6.3301    1.8988    0.0000 C   0  0  0  0  0  0  0  0  0  0  0  0
    4.5981    1.8988    0.0000 C   0  0  0  0  0  0  0  0  0  0  0  0
    6.3301    0.8988    0.0000 C   0  0  0  0  0  0  0  0  0  0  0  0
    4.5981    0.8988    0.0000 C   0  0  0  0  0  0  0  0  0  0  0  0
    5.4641   -0.6012    0.0000 C   0  0  0  0  0  0  0  0  0  0  0  0
    4.5981    3.8988    0.0000 C   0  0  0  0  0  0  0  0  0  0  0  0
    4.5981   -1.1012    0.0000 C   0  0  0  0  0  0  0  0  0  0  0  0
    7.1962    4.3988    0.0000 C   0  0  0  0  0  0  0  0  0  0  0  0
    8.1097    3.9920    0.0000 C   0  0  0  0  0  0  0  0  0  0  0  0
    7.3007    5.3933    0.0000 C   0  0  0  0  0  0  0  0  0  0  0  0
    3.7320   -2.6012    0.0000 C   0  0  0  0  0  0  0  0  0  0  0  0
    3.7320   -3.6012    0.0000 C   0  0  0  0  0  0  0  0  0  0  0  0
    9.7734    4.6307    0.0000 C   0  0  0  0  0  0  0  0  0  0  0  0
    2.8660   -2.1012    0.0000 C   0  0  0  0  0  0  0  0  0  0  0  0
    4.5981   -4.1012    0.0000 C   0  0  0  0  0  0  0  0  0  0  0  0
    2.8660   -4.1012    0.0000 C   0  0  0  0  0  0  0  0  0  0  0  0
    2.0000   -2.6012    0.0000 C   0  0  0  0  0  0  0  0  0  0  0  0
    2.0000   -3.6012    0.0000 C   0  0  0  0  0  0  0  0  0  0  0  0
    4.5981   -5.1012    0.0000 C   0  0  0  0  0  0  0  0  0  0  0  0
    5.4641   -3.6012    0.0000 C   0  0  0  0  0  0  0  0  0  0  0  0
    5.4641   -5.6012    0.0000 C   0  0  0  0  0  0  0  0  0  0  0  0
    6.3301   -4.1012    0.0000 C   0  0  0  0  0  0  0  0  0  0  0  0
    6.3301   -5.1012    0.0000 C   0  0  0  0  0  0  0  0  0  0  0  0
    6.0010    2.7088    0.0000 H   0  0  0  0  0  0  0  0  0  0  0  0
    6.9407    1.7911    0.0000 H   0  0  0  0  0  0  0  0  0  0  0  0
    6.5422    2.4814    0.0000 H   0  0  0  0  0  0  0  0  0  0  0  0
    4.3860    2.4814    0.0000 H   0  0  0  0  0  0  0  0  0  0  0  0
    3.9875    1.7911    0.0000 H   0  0  0  0  0  0  0  0  0  0  0  0
    6.5422    0.3162    0.0000 H   0  0  0  0  0  0  0  0  0  0  0  0
    6.9407    1.0064    0.0000 H   0  0  0  0  0  0  0  0  0  0  0  0
    3.9875    1.0064    0.0000 H   0  0  0  0  0  0  0  0  0  0  0  0
    4.3860    0.3162    0.0000 H   0  0  0  0  0  0  0  0  0  0  0  0
    5.6762   -1.1838    0.0000 H   0  0  0  0  0  0  0  0  0  0  0  0
    6.0747   -0.4936    0.0000 H   0  0  0  0  0  0  0  0  0  0  0  0
    4.9081    4.4357    0.0000 H   0  0  0  0  0  0  0  0  0  0  0  0
    4.0611    4.2088    0.0000 H   0  0  0  0  0  0  0  0  0  0  0  0
    4.2881    3.3618    0.0000 H   0  0  0  0  0  0  0  0  0  0  0  0
    4.3860   -0.5186    0.0000 H   0  0  0  0  0  0  0  0  0  0  0  0
    3.9875   -1.2089    0.0000 H   0  0  0  0  0  0  0  0  0  0  0  0
    8.2386    3.3856    0.0000 H   0  0  0  0  0  0  0  0  0  0  0  0
    6.8399    5.8082    0.0000 H   0  0  0  0  0  0  0  0  0  0  0  0
    9.7085    4.0141    0.0000 H   0  0  0  0  0  0  0  0  0  0  0  0
   10.3900    4.5659    0.0000 H   0  0  0  0  0  0  0  0  0  0  0  0
    9.8382    5.2473    0.0000 H   0  0  0  0  0  0  0  0  0  0  0  0
    2.8660   -1.4812    0.0000 H   0  0  0  0  0  0  0  0  0  0  0  0
    2.8660   -4.7212    0.0000 H   0  0  0  0  0  0  0  0  0  0  0  0
    1.4631   -2.2912    0.0000 H   0  0  0  0  0  0  0  0  0  0  0  0
    1.4631   -3.9112    0.0000 H   0  0  0  0  0  0  0  0  0  0  0  0
    4.0611   -5.4112    0.0000 H   0  0  0  0  0  0  0  0  0  0  0  0
    5.4641   -2.9812    0.0000 H   0  0  0  0  0  0  0  0  0  0  0  0
    5.4641   -6.2212    0.0000 H   0  0  0  0  0  0  0  0  0  0  0  0
    6.8671   -3.7912    0.0000 H   0  0  0  0  0  0  0  0  0  0  0  0
    6.8671   -5.4112    0.0000 H   0  0  0  0  0  0  0  0  0  0  0  0
  1  2  2  0  0  0  0
  1  3  2  0  0  0  0
  1  6  1  0  0  0  0
  1 17  1  0  0  0  0
  4 16  1  0  0  0  0
  4 20  1  0  0  0  0
  5 12  1  0  0  0  0
  5 13  1  0  0  0  0
  5 14  1  0  0  0  0
  6  9  1  0  0  0  0
  6 15  1  0  0  0  0
  7  8  1  0  0  0  0
  7 18  1  0  0  0  0
  7 22  1  0  0  0  0
  8 19  2  0  0  0  0
  9 10  1  0  0  0  0
  9 11  1  0  0  0  0
  9 33  1  0  0  0  0
 10 12  1  0  0  0  0
 10 34  1  0  0  0  0
 10 35  1  0  0  0  0
 11 13  1  0  0  0  0
 11 36  1  0  0  0  0
 11 37  1  0  0  0  0
 12 38  1  0  0  0  0
 12 39  1  0  0  0  0
 13 40  1  0  0  0  0
 13 41  1  0  0  0  0
 14 16  1  0  0  0  0
 14 42  1  0  0  0  0
 14 43  1  0  0  0  0
 15 44  1  0  0  0  0
 15 45  1  0  0  0  0
 15 46  1  0  0  0  0
 16 47  1  0  0  0  0
 16 48  1  0  0  0  0
 17 18  2  0  0  0  0
 17 19  1  0  0  0  0
 18 49  1  0  0  0  0
 19 50  1  0  0  0  0
 20 21  1  0  0  0  0
 20 23  2  0  0  0  0
 21 24  1  0  0  0  0
 21 25  2  0  0  0  0
 22 51  1  0  0  0  0
 22 52  1  0  0  0  0
 22 53  1  0  0  0  0
 23 26  1  0  0  0  0
 23 54  1  0  0  0  0
 24 28  2  0  0  0  0
 24 29  1  0  0  0  0
 25 27  1  0  0  0  0
 25 55  1  0  0  0  0
 26 27  2  0  0  0  0
 26 56  1  0  0  0  0
 27 57  1  0  0  0  0
 28 30  1  0  0  0  0
 28 58  1  0  0  0  0
 29 31  2  0  0  0  0
 29 59  1  0  0  0  0
 30 32  2  0  0  0  0
 30 60  1  0  0  0  0
 31 32  1  0  0  0  0
 31 61  1  0  0  0  0
 32 62  1  0  0  0  0
M  END
> <PUBCHEM_COMPOUND_CID>
127042185

> <PUBCHEM_COMPOUND_CANONICALIZED>
1

> <PUBCHEM_CACTVS_COMPLEXITY>
671

> <PUBCHEM_CACTVS_HBOND_ACCEPTOR>
6

> <PUBCHEM_CACTVS_HBOND_DONOR>
0

> <PUBCHEM_CACTVS_ROTATABLE_BOND>
8

> <PUBCHEM_CACTVS_SUBSKEYS>
AAADceB7sABAAAAAAAAAAAAAAAAAAWAAAAA8YIAAAAAAAAAB0AAAHgQIQAAADCzh2gY+h5MIBAKiAjBnRHDSDBAxoAAY2CwuTJgOJqLE8VqHvCikyBHYqAeQwOAOgAAAAAAIAAAAAAAAABAAAAAAAAAAAA==

> <PUBCHEM_IUPAC_OPENEYE_NAME>
N,1-dimethyl-N-[1-[2-(2-phenylphenoxy)ethyl]-4-piperidyl]pyrazole-4-sulfonamide

> <PUBCHEM_IUPAC_CAS_NAME>
N,1-dimethyl-N-[1-[2-(2-phenylphenoxy)ethyl]-4-piperidinyl]-4-pyrazolesulfonamide

> <PUBCHEM_IUPAC_NAME_MARKUP>
<I>N</I>,1-dimethyl-<I>N</I>-[1-[2-(2-phenylphenoxy)ethyl]piperidin-4-yl]pyrazole-4-sulfonamide

> <PUBCHEM_IUPAC_NAME>
N,1-dimethyl-N-[1-[2-(2-phenylphenoxy)ethyl]piperidin-4-yl]pyrazole-4-sulfonamide

> <PUBCHEM_IUPAC_SYSTEMATIC_NAME>
N,1-dimethyl-N-[1-[2-(2-phenylphenoxy)ethyl]piperidin-4-yl]pyrazole-4-sulfonamide

> <PUBCHEM_IUPAC_TRADITIONAL_NAME>
N,1-dimethyl-N-[1-[2-(2-phenylphenoxy)ethyl]-4-piperidyl]pyrazole-4-sulfonamide

> <PUBCHEM_IUPAC_INCHI>
InChI=1S/C24H30N4O3S/c1-26-19-22(18-25-26)32(29,30)27(2)21-12-14-28(15-13-21)16-17-31-24-11-7-6-10-23(24)20-8-4-3-5-9-20/h3-11,18-19,21H,12-17H2,1-2H3

> <PUBCHEM_IUPAC_INCHIKEY>
VDUFANHTAMLEII-UHFFFAOYSA-N

> <PUBCHEM_XLOGP3_AA>
3.3

> <PUBCHEM_EXACT_MASS>
454.20386201

> <PUBCHEM_MOLECULAR_FORMULA>
C24H30N4O3S

> <PUBCHEM_MOLECULAR_WEIGHT>
454.6

> <PUBCHEM_OPENEYE_CAN_SMILES>
CN1C=C(C=N1)S(=O)(=O)N(C)C2CCN(CC2)CCOC3=CC=CC=C3C4=CC=CC=C4

> <PUBCHEM_OPENEYE_ISO_SMILES>
CN1C=C(C=N1)S(=O)(=O)N(C)C2CCN(CC2)CCOC3=CC=CC=C3C4=CC=CC=C4

> <PUBCHEM_CACTVS_TPSA>
76

> <PUBCHEM_MONOISOTOPIC_WEIGHT>
454.20386201

> <PUBCHEM_TOTAL_CHARGE>
0

> <PUBCHEM_HEAVY_ATOM_COUNT>
32

> <PUBCHEM_ATOM_DEF_STEREO_COUNT>
0

> <PUBCHEM_ATOM_UDEF_STEREO_COUNT>
0

> <PUBCHEM_BOND_DEF_STEREO_COUNT>
0

> <PUBCHEM_BOND_UDEF_STEREO_COUNT>
0

> <PUBCHEM_ISOTOPIC_ATOM_COUNT>
0

> <PUBCHEM_COMPONENT_COUNT>
1

> <PUBCHEM_CACTVS_TAUTO_COUNT>
-1

> <PUBCHEM_COORDINATE_TYPE>
1
5
255

> <PUBCHEM_BONDANNOTATIONS>
17  18  8
17  19  8
20  21  8
20  23  8
21  25  8
23  26  8
24  28  8
24  29  8
25  27  8
26  27  8
28  30  8
29  31  8
30  32  8
31  32  8
7  18  8
7  8  8
8  19  8

$$$$
