168275235
  -OEChem-09292322452D

 58 61  0     0  0  0  0  0  0999 V2000
   11.5320   -1.1887    0.0000 O   0  0  0  0  0  0  0  0  0  0  0  0
    4.5923    1.7846    0.0000 O   0  0  0  0  0  0  0  0  0  0  0  0
   16.7942   -1.1646    0.0000 O   0  0  0  0  0  0  0  0  0  0  0  0
    7.2000   -0.7054    0.0000 N   0  0  0  0  0  0  0  0  0  0  0  0
    5.4641    0.2879    0.0000 N   0  0  0  0  0  0  0  0  0  0  0  0
   15.0621   -1.1646    0.0000 N   0  0  0  0  0  0  0  0  0  0  0  0
    3.7359   -0.7188    0.0000 N   0  0  0  0  0  0  0  0  0  0  0  0
    7.1961    0.2946    0.0000 C   0  0  0  0  0  0  0  0  0  0  0  0
    6.3359   -1.2087    0.0000 C   0  0  0  0  0  0  0  0  0  0  0  0
    6.3282    0.7912    0.0000 C   0  0  0  0  0  0  0  0  0  0  0  0
    5.4679   -0.7121    0.0000 C   0  0  0  0  0  0  0  0  0  0  0  0
    8.0679   -1.2021    0.0000 C   0  0  0  0  0  0  0  0  0  0  0  0
    8.9320   -0.6987    0.0000 C   0  0  0  0  0  0  0  0  0  0  0  0
    9.8000   -1.1954    0.0000 C   0  0  0  0  0  0  0  0  0  0  0  0
    4.5961    0.7846    0.0000 C   0  0  0  0  0  0  0  0  0  0  0  0
   10.6640   -0.6921    0.0000 C   0  0  0  0  0  0  0  0  0  0  0  0
    3.7320    0.2812    0.0000 C   0  0  0  0  0  0  0  0  0  0  0  0
   14.1961    0.3354    0.0000 C   0  0  0  0  0  0  0  0  0  0  0  0
   15.0621    0.8354    0.0000 C   0  0  0  0  0  0  0  0  0  0  0  0
   14.1961   -0.6646    0.0000 C   0  0  0  0  0  0  0  0  0  0  0  0
   12.3961   -0.6854    0.0000 C   0  0  0  0  0  0  0  0  0  0  0  0
   15.9281    0.3354    0.0000 C   0  0  0  0  0  0  0  0  0  0  0  0
   13.3021   -1.1992    0.0000 C   0  0  0  0  0  0  0  0  0  0  0  0
   13.3021    0.8701    0.0000 C   0  0  0  0  0  0  0  0  0  0  0  0
   12.3961    0.3563    0.0000 C   0  0  0  0  0  0  0  0  0  0  0  0
   15.9281   -0.6646    0.0000 C   0  0  0  0  0  0  0  0  0  0  0  0
    2.8641    0.7779    0.0000 C   0  0  0  0  0  0  0  0  0  0  0  0
    2.0000    0.2746    0.0000 C   0  0  0  0  0  0  0  0  0  0  0  0
    2.8718   -1.2221    0.0000 C   0  0  0  0  0  0  0  0  0  0  0  0
    2.0038   -0.7254    0.0000 C   0  0  0  0  0  0  0  0  0  0  0  0
    7.8071    0.1893    0.0000 H   0  0  0  0  0  0  0  0  0  0  0  0
    7.4059    0.8780    0.0000 H   0  0  0  0  0  0  0  0  0  0  0  0
    5.9392   -1.6852    0.0000 H   0  0  0  0  0  0  0  0  0  0  0  0
    6.7362   -1.6822    0.0000 H   0  0  0  0  0  0  0  0  0  0  0  0
    6.7249    1.2677    0.0000 H   0  0  0  0  0  0  0  0  0  0  0  0
    5.9278    1.2646    0.0000 H   0  0  0  0  0  0  0  0  0  0  0  0
    4.8569   -0.6068    0.0000 H   0  0  0  0  0  0  0  0  0  0  0  0
    5.2581   -1.2955    0.0000 H   0  0  0  0  0  0  0  0  0  0  0  0
    7.6712   -1.6785    0.0000 H   0  0  0  0  0  0  0  0  0  0  0  0
    8.4683   -1.6755    0.0000 H   0  0  0  0  0  0  0  0  0  0  0  0
    9.3287   -0.2222    0.0000 H   0  0  0  0  0  0  0  0  0  0  0  0
    8.5317   -0.2253    0.0000 H   0  0  0  0  0  0  0  0  0  0  0  0
    9.4033   -1.6719    0.0000 H   0  0  0  0  0  0  0  0  0  0  0  0
   10.2003   -1.6688    0.0000 H   0  0  0  0  0  0  0  0  0  0  0  0
   11.0607   -0.2156    0.0000 H   0  0  0  0  0  0  0  0  0  0  0  0
   10.2637   -0.2186    0.0000 H   0  0  0  0  0  0  0  0  0  0  0  0
   15.4606    1.3104    0.0000 H   0  0  0  0  0  0  0  0  0  0  0  0
   14.6636    1.3104    0.0000 H   0  0  0  0  0  0  0  0  0  0  0  0
   16.5387    0.2278    0.0000 H   0  0  0  0  0  0  0  0  0  0  0  0
   16.1402    0.9180    0.0000 H   0  0  0  0  0  0  0  0  0  0  0  0
   13.3093   -1.8192    0.0000 H   0  0  0  0  0  0  0  0  0  0  0  0
   13.3093    1.4901    0.0000 H   0  0  0  0  0  0  0  0  0  0  0  0
   11.8603    0.6683    0.0000 H   0  0  0  0  0  0  0  0  0  0  0  0
   15.0621   -1.7846    0.0000 H   0  0  0  0  0  0  0  0  0  0  0  0
    2.8617    1.3979    0.0000 H   0  0  0  0  0  0  0  0  0  0  0  0
    1.4619    0.5825    0.0000 H   0  0  0  0  0  0  0  0  0  0  0  0
    2.8742   -1.8421    0.0000 H   0  0  0  0  0  0  0  0  0  0  0  0
    1.4681   -1.0375    0.0000 H   0  0  0  0  0  0  0  0  0  0  0  0
  1 16  1  0  0  0  0
  1 21  1  0  0  0  0
  2 15  2  0  0  0  0
  3 26  2  0  0  0  0
  4  8  1  0  0  0  0
  4  9  1  0  0  0  0
  4 12  1  0  0  0  0
  5 10  1  0  0  0  0
  5 11  1  0  0  0  0
  5 15  1  0  0  0  0
  6 20  1  0  0  0  0
  6 26  1  0  0  0  0
  6 54  1  0  0  0  0
  7 17  1  0  0  0  0
  7 29  2  0  0  0  0
  8 10  1  0  0  0  0
  8 31  1  0  0  0  0
  8 32  1  0  0  0  0
  9 11  1  0  0  0  0
  9 33  1  0  0  0  0
  9 34  1  0  0  0  0
 10 35  1  0  0  0  0
 10 36  1  0  0  0  0
 11 37  1  0  0  0  0
 11 38  1  0  0  0  0
 12 13  1  0  0  0  0
 12 39  1  0  0  0  0
 12 40  1  0  0  0  0
 13 14  1  0  0  0  0
 13 41  1  0  0  0  0
 13 42  1  0  0  0  0
 14 16  1  0  0  0  0
 14 43  1  0  0  0  0
 14 44  1  0  0  0  0
 15 17  1  0  0  0  0
 16 45  1  0  0  0  0
 16 46  1  0  0  0  0
 17 27  2  0  0  0  0
 18 19  1  0  0  0  0
 18 20  2  0  0  0  0
 18 24  1  0  0  0  0
 19 22  1  0  0  0  0
 19 47  1  0  0  0  0
 19 48  1  0  0  0  0
 20 23  1  0  0  0  0
 21 23  2  0  0  0  0
 21 25  1  0  0  0  0
 22 26  1  0  0  0  0
 22 49  1  0  0  0  0
 22 50  1  0  0  0  0
 23 51  1  0  0  0  0
 24 25  2  0  0  0  0
 24 52  1  0  0  0  0
 25 53  1  0  0  0  0
 27 28  1  0  0  0  0
 27 55  1  0  0  0  0
 28 30  2  0  0  0  0
 28 56  1  0  0  0  0
 29 30  1  0  0  0  0
 29 57  1  0  0  0  0
 30 58  1  0  0  0  0
M  END
> <PUBCHEM_COMPOUND_CID>
168275235

> <PUBCHEM_COMPOUND_CANONICALIZED>
1

> <PUBCHEM_CACTVS_COMPLEXITY>
579

> <PUBCHEM_CACTVS_HBOND_ACCEPTOR>
5

> <PUBCHEM_CACTVS_HBOND_DONOR>
1

> <PUBCHEM_CACTVS_ROTATABLE_BOND>
7

> <PUBCHEM_CACTVS_SUBSKEYS>
AAADceB7sAAAAAAAAAAAAAAAAAAAAAAAAAA8WLEAAAAAAACxwAAAHgAQAAAADAzhngY8xpPIFACoAzV3VACCiCA3IiAI2CG+bNgMZvLEtbuWOSjm1hnI6Ye42aOeIAAAAgACAABAAAAEAAQAAAAAAAAAAA==

> <PUBCHEM_IUPAC_OPENEYE_NAME>
7-[4-[4-(pyridine-2-carbonyl)piperazin-1-yl]butoxy]-3,4-dihydro-1H-quinolin-2-one

> <PUBCHEM_IUPAC_CAS_NAME>
7-[4-[4-[oxo(2-pyridinyl)methyl]-1-piperazinyl]butoxy]-3,4-dihydro-1H-quinolin-2-one

> <PUBCHEM_IUPAC_NAME_MARKUP>
7-[4-[4-(pyridine-2-carbonyl)piperazin-1-yl]butoxy]-3,4-dihydro-1<I>H</I>-quinolin-2-one

> <PUBCHEM_IUPAC_NAME>
7-[4-[4-(pyridine-2-carbonyl)piperazin-1-yl]butoxy]-3,4-dihydro-1H-quinolin-2-one

> <PUBCHEM_IUPAC_SYSTEMATIC_NAME>
7-[4-(4-pyridin-2-ylcarbonylpiperazin-1-yl)butoxy]-3,4-dihydro-1H-quinolin-2-one

> <PUBCHEM_IUPAC_TRADITIONAL_NAME>
7-[4-(4-picolinoylpiperazino)butoxy]-3,4-dihydrocarbostyril

> <PUBCHEM_IUPAC_INCHI>
InChI=1S/C23H28N4O3/c28-22-9-7-18-6-8-19(17-21(18)25-22)30-16-4-3-11-26-12-14-27(15-13-26)23(29)20-5-1-2-10-24-20/h1-2,5-6,8,10,17H,3-4,7,9,11-16H2,(H,25,28)

> <PUBCHEM_IUPAC_INCHIKEY>
NKPZUJWHJYTWEE-UHFFFAOYSA-N

> <PUBCHEM_XLOGP3_AA>
2

> <PUBCHEM_EXACT_MASS>
408.21614077

> <PUBCHEM_MOLECULAR_FORMULA>
C23H28N4O3

> <PUBCHEM_MOLECULAR_WEIGHT>
408.5

> <PUBCHEM_OPENEYE_CAN_SMILES>
C1CC(=O)NC2=C1C=CC(=C2)OCCCCN3CCN(CC3)C(=O)C4=CC=CC=N4

> <PUBCHEM_OPENEYE_ISO_SMILES>
C1CC(=O)NC2=C1C=CC(=C2)OCCCCN3CCN(CC3)C(=O)C4=CC=CC=N4

> <PUBCHEM_CACTVS_TPSA>
74.8

> <PUBCHEM_MONOISOTOPIC_WEIGHT>
408.21614077

> <PUBCHEM_TOTAL_CHARGE>
0

> <PUBCHEM_HEAVY_ATOM_COUNT>
30

> <PUBCHEM_ATOM_DEF_STEREO_COUNT>
0

> <PUBCHEM_ATOM_UDEF_STEREO_COUNT>
0

> <PUBCHEM_BOND_DEF_STEREO_COUNT>
0

> <PUBCHEM_BOND_UDEF_STEREO_COUNT>
0

> <PUBCHEM_ISOTOPIC_ATOM_COUNT>
0

> <PUBCHEM_COMPONENT_COUNT>
1

> <PUBCHEM_CACTVS_TAUTO_COUNT>
-1

> <PUBCHEM_COORDINATE_TYPE>
1
5
255

> <PUBCHEM_BONDANNOTATIONS>
17  27  8
18  20  8
18  24  8
20  23  8
21  23  8
21  25  8
24  25  8
27  28  8
28  30  8
29  30  8
7  17  8
7  29  8

$$$$
