45271653
  -OEChem-09292322292D

 51 54  0     0  0  0  0  0  0999 V2000
   12.7045   -1.6241    0.0000 O   0  0  0  0  0  0  0  0  0  0  0  0
    6.8335   -0.3868    0.0000 N   0  0  0  0  0  0  0  0  0  0  0  0
    8.7905   -0.7993    0.0000 N   0  0  0  0  0  0  0  0  0  0  0  0
    4.5981    1.0747    0.0000 N   0  0  0  0  0  0  0  0  0  0  0  0
    5.5443    2.3794    0.0000 N   0  0  0  0  0  0  0  0  0  0  0  0
    2.8660    1.0747    0.0000 N   0  0  0  0  0  0  0  0  0  0  0  0
    7.5013    0.3575    0.0000 C   0  0  0  0  0  0  0  0  0  0  0  0
    7.1441   -1.3373    0.0000 C   0  0  0  0  0  0  0  0  0  0  0  0
    8.4798    0.1513    0.0000 C   0  0  0  0  0  0  0  0  0  0  0  0
    8.1226   -1.5436    0.0000 C   0  0  0  0  0  0  0  0  0  0  0  0
    5.8550   -0.1806    0.0000 C   0  0  0  0  0  0  0  0  0  0  0  0
    5.5443    0.7699    0.0000 C   0  0  0  0  0  0  0  0  0  0  0  0
    9.7690   -1.0055    0.0000 C   0  0  0  0  0  0  0  0  0  0  0  0
    6.1279    1.5747    0.0000 C   0  0  0  0  0  0  0  0  0  0  0  0
    4.5981    2.0746    0.0000 C   0  0  0  0  0  0  0  0  0  0  0  0
   10.0796   -1.9560    0.0000 C   0  0  0  0  0  0  0  0  0  0  0  0
   10.4368   -0.2612    0.0000 C   0  0  0  0  0  0  0  0  0  0  0  0
    3.7320    0.5747    0.0000 C   0  0  0  0  0  0  0  0  0  0  0  0
    7.1279    1.5747    0.0000 C   0  0  0  0  0  0  0  0  0  0  0  0
    3.7320    2.5746    0.0000 C   0  0  0  0  0  0  0  0  0  0  0  0
   11.0582   -2.1622    0.0000 C   0  0  0  0  0  0  0  0  0  0  0  0
   11.4153   -0.4674    0.0000 C   0  0  0  0  0  0  0  0  0  0  0  0
    2.8660    2.0746    0.0000 C   0  0  0  0  0  0  0  0  0  0  0  0
   11.7260   -1.4179    0.0000 C   0  0  0  0  0  0  0  0  0  0  0  0
    2.0000    2.5746    0.0000 C   0  0  0  0  0  0  0  0  0  0  0  0
   13.0152   -2.5746    0.0000 C   0  0  0  0  0  0  0  0  0  0  0  0
    7.7326    0.9327    0.0000 H   0  0  0  0  0  0  0  0  0  0  0  0
    6.9750    0.6851    0.0000 H   0  0  0  0  0  0  0  0  0  0  0  0
    6.5303   -1.4247    0.0000 H   0  0  0  0  0  0  0  0  0  0  0  0
    7.1236   -1.9570    0.0000 H   0  0  0  0  0  0  0  0  0  0  0  0
    9.0936    0.2386    0.0000 H   0  0  0  0  0  0  0  0  0  0  0  0
    8.5004    0.7709    0.0000 H   0  0  0  0  0  0  0  0  0  0  0  0
    7.8914   -2.1188    0.0000 H   0  0  0  0  0  0  0  0  0  0  0  0
    8.6490   -1.8712    0.0000 H   0  0  0  0  0  0  0  0  0  0  0  0
    5.2411   -0.2680    0.0000 H   0  0  0  0  0  0  0  0  0  0  0  0
    5.8344   -0.8003    0.0000 H   0  0  0  0  0  0  0  0  0  0  0  0
    9.6656   -2.4175    0.0000 H   0  0  0  0  0  0  0  0  0  0  0  0
   10.2442    0.3281    0.0000 H   0  0  0  0  0  0  0  0  0  0  0  0
    3.7320   -0.0453    0.0000 H   0  0  0  0  0  0  0  0  0  0  0  0
    7.1279    0.9547    0.0000 H   0  0  0  0  0  0  0  0  0  0  0  0
    7.7479    1.5747    0.0000 H   0  0  0  0  0  0  0  0  0  0  0  0
    7.1279    2.1947    0.0000 H   0  0  0  0  0  0  0  0  0  0  0  0
    3.7320    3.1947    0.0000 H   0  0  0  0  0  0  0  0  0  0  0  0
   11.2508   -2.7515    0.0000 H   0  0  0  0  0  0  0  0  0  0  0  0
   11.8294   -0.0059    0.0000 H   0  0  0  0  0  0  0  0  0  0  0  0
    2.3100    3.1116    0.0000 H   0  0  0  0  0  0  0  0  0  0  0  0
    1.4631    2.8846    0.0000 H   0  0  0  0  0  0  0  0  0  0  0  0
    1.6900    2.0377    0.0000 H   0  0  0  0  0  0  0  0  0  0  0  0
   12.4258   -2.7673    0.0000 H   0  0  0  0  0  0  0  0  0  0  0  0
   13.2078   -3.1640    0.0000 H   0  0  0  0  0  0  0  0  0  0  0  0
   13.6045   -2.3820    0.0000 H   0  0  0  0  0  0  0  0  0  0  0  0
  1 24  1  0  0  0  0
  1 26  1  0  0  0  0
  2  7  1  0  0  0  0
  2  8  1  0  0  0  0
  2 11  1  0  0  0  0
  3  9  1  0  0  0  0
  3 10  1  0  0  0  0
  3 13  1  0  0  0  0
  4 12  1  0  0  0  0
  4 15  1  0  0  0  0
  4 18  1  0  0  0  0
  5 14  1  0  0  0  0
  5 15  2  0  0  0  0
  6 18  2  0  0  0  0
  6 23  1  0  0  0  0
  7  9  1  0  0  0  0
  7 27  1  0  0  0  0
  7 28  1  0  0  0  0
  8 10  1  0  0  0  0
  8 29  1  0  0  0  0
  8 30  1  0  0  0  0
  9 31  1  0  0  0  0
  9 32  1  0  0  0  0
 10 33  1  0  0  0  0
 10 34  1  0  0  0  0
 11 12  1  0  0  0  0
 11 35  1  0  0  0  0
 11 36  1  0  0  0  0
 12 14  2  0  0  0  0
 13 16  2  0  0  0  0
 13 17  1  0  0  0  0
 14 19  1  0  0  0  0
 15 20  1  0  0  0  0
 16 21  1  0  0  0  0
 16 37  1  0  0  0  0
 17 22  2  0  0  0  0
 17 38  1  0  0  0  0
 18 39  1  0  0  0  0
 19 40  1  0  0  0  0
 19 41  1  0  0  0  0
 19 42  1  0  0  0  0
 20 23  2  0  0  0  0
 20 43  1  0  0  0  0
 21 24  2  0  0  0  0
 21 44  1  0  0  0  0
 22 24  1  0  0  0  0
 22 45  1  0  0  0  0
 23 25  1  0  0  0  0
 25 46  1  0  0  0  0
 25 47  1  0  0  0  0
 25 48  1  0  0  0  0
 26 49  1  0  0  0  0
 26 50  1  0  0  0  0
 26 51  1  0  0  0  0
M  END
> <PUBCHEM_COMPOUND_CID>
45271653

> <PUBCHEM_COMPOUND_CANONICALIZED>
1

> <PUBCHEM_CACTVS_COMPLEXITY>
448

> <PUBCHEM_CACTVS_HBOND_ACCEPTOR>
5

> <PUBCHEM_CACTVS_HBOND_DONOR>
0

> <PUBCHEM_CACTVS_ROTATABLE_BOND>
4

> <PUBCHEM_CACTVS_SUBSKEYS>
AAADceB7oAAAAAAAAAAAAAAAAAAAAWAAAAA8WIAAAAAAAFgB8AAAHgAAAAAACAzBlwY39p8MHACgASZjZACCiC0xMqAJ2CA+fJiMbmLE+duUNChswBPI6CewQAAAAEAAAAAAAAAAgAAAAAAAAAAAAAAAAA==

> <PUBCHEM_IUPAC_OPENEYE_NAME>
3-[[4-(4-methoxyphenyl)piperazin-1-yl]methyl]-2,7-dimethyl-imidazo[1,2-c]pyrimidine

> <PUBCHEM_IUPAC_CAS_NAME>
3-[[4-(4-methoxyphenyl)-1-piperazinyl]methyl]-2,7-dimethylimidazo[1,2-c]pyrimidine

> <PUBCHEM_IUPAC_NAME_MARKUP>
3-[[4-(4-methoxyphenyl)piperazin-1-yl]methyl]-2,7-dimethylimidazo[1,2-c]pyrimidine

> <PUBCHEM_IUPAC_NAME>
3-[[4-(4-methoxyphenyl)piperazin-1-yl]methyl]-2,7-dimethylimidazo[1,2-c]pyrimidine

> <PUBCHEM_IUPAC_SYSTEMATIC_NAME>
3-[[4-(4-methoxyphenyl)piperazin-1-yl]methyl]-2,7-dimethyl-imidazo[1,2-c]pyrimidine

> <PUBCHEM_IUPAC_TRADITIONAL_NAME>
3-[[4-(4-methoxyphenyl)piperazino]methyl]-2,7-dimethyl-imidazo[1,2-c]pyrimidine

> <PUBCHEM_IUPAC_INCHI>
InChI=1S/C20H25N5O/c1-15-12-20-22-16(2)19(25(20)14-21-15)13-23-8-10-24(11-9-23)17-4-6-18(26-3)7-5-17/h4-7,12,14H,8-11,13H2,1-3H3

> <PUBCHEM_IUPAC_INCHIKEY>
FDBKWBKBMRKPJG-UHFFFAOYSA-N

> <PUBCHEM_XLOGP3_AA>
3.3

> <PUBCHEM_EXACT_MASS>
351.20591044

> <PUBCHEM_MOLECULAR_FORMULA>
C20H25N5O

> <PUBCHEM_MOLECULAR_WEIGHT>
351.4

> <PUBCHEM_OPENEYE_CAN_SMILES>
CC1=CC2=NC(=C(N2C=N1)CN3CCN(CC3)C4=CC=C(C=C4)OC)C

> <PUBCHEM_OPENEYE_ISO_SMILES>
CC1=CC2=NC(=C(N2C=N1)CN3CCN(CC3)C4=CC=C(C=C4)OC)C

> <PUBCHEM_CACTVS_TPSA>
45.9

> <PUBCHEM_MONOISOTOPIC_WEIGHT>
351.20591044

> <PUBCHEM_TOTAL_CHARGE>
0

> <PUBCHEM_HEAVY_ATOM_COUNT>
26

> <PUBCHEM_ATOM_DEF_STEREO_COUNT>
0

> <PUBCHEM_ATOM_UDEF_STEREO_COUNT>
0

> <PUBCHEM_BOND_DEF_STEREO_COUNT>
0

> <PUBCHEM_BOND_UDEF_STEREO_COUNT>
0

> <PUBCHEM_ISOTOPIC_ATOM_COUNT>
0

> <PUBCHEM_COMPONENT_COUNT>
1

> <PUBCHEM_CACTVS_TAUTO_COUNT>
-1

> <PUBCHEM_COORDINATE_TYPE>
1
5
255

> <PUBCHEM_BONDANNOTATIONS>
12  14  8
13  16  8
13  17  8
15  20  8
16  21  8
17  22  8
20  23  8
21  24  8
22  24  8
4  12  8
4  15  8
4  18  8
5  14  8
5  15  8
6  18  8
6  23  8

$$$$
