11849736
  -OEChem-09292322022D

 48 50  0     0  0  0  0  0  0999 V2000
    3.7891   -3.5684    0.0000 S   0  0  0  0  0  0  0  0  0  0  0  0
    3.7320    2.5194    0.0000 O   0  0  0  0  0  0  0  0  0  0  0  0
    4.5981    0.0194    0.0000 N   0  0  0  0  0  0  0  0  0  0  0  0
    4.5981   -1.9806    0.0000 N   0  0  0  0  0  0  0  0  0  0  0  0
    5.4071   -3.5684    0.0000 N   0  0  0  0  0  0  0  0  0  0  0  0
    4.5981    3.0194    0.0000 N   0  0  0  0  0  0  0  0  0  0  0  0
    3.7320   -0.4806    0.0000 C   0  0  0  0  0  0  0  0  0  0  0  0
    5.4641   -0.4806    0.0000 C   0  0  0  0  0  0  0  0  0  0  0  0
    3.7320   -1.4806    0.0000 C   0  0  0  0  0  0  0  0  0  0  0  0
    5.4641   -1.4806    0.0000 C   0  0  0  0  0  0  0  0  0  0  0  0
    4.5981    1.0194    0.0000 C   0  0  0  0  0  0  0  0  0  0  0  0
    5.4641    1.5194    0.0000 C   0  0  0  0  0  0  0  0  0  0  0  0
    4.5981   -2.9806    0.0000 C   0  0  0  0  0  0  0  0  0  0  0  0
    5.4641    2.5194    0.0000 C   0  0  0  0  0  0  0  0  0  0  0  0
    6.3301    3.0194    0.0000 C   0  0  0  0  0  0  0  0  0  0  0  0
    4.0981   -4.5194    0.0000 C   0  0  0  0  0  0  0  0  0  0  0  0
    5.0981   -4.5194    0.0000 C   0  0  0  0  0  0  0  0  0  0  0  0
    7.1962    2.5194    0.0000 C   0  0  0  0  0  0  0  0  0  0  0  0
    6.3301    4.0194    0.0000 C   0  0  0  0  0  0  0  0  0  0  0  0
    8.0622    3.0194    0.0000 C   0  0  0  0  0  0  0  0  0  0  0  0
    7.1962    4.5194    0.0000 C   0  0  0  0  0  0  0  0  0  0  0  0
    8.0622    4.0194    0.0000 C   0  0  0  0  0  0  0  0  0  0  0  0
    2.8660    3.0194    0.0000 C   0  0  0  0  0  0  0  0  0  0  0  0
    2.0000    2.5194    0.0000 C   0  0  0  0  0  0  0  0  0  0  0  0
    3.5200    0.1020    0.0000 H   0  0  0  0  0  0  0  0  0  0  0  0
    3.1215   -0.5882    0.0000 H   0  0  0  0  0  0  0  0  0  0  0  0
    6.0747   -0.5882    0.0000 H   0  0  0  0  0  0  0  0  0  0  0  0
    5.6762    0.1020    0.0000 H   0  0  0  0  0  0  0  0  0  0  0  0
    3.1215   -1.3729    0.0000 H   0  0  0  0  0  0  0  0  0  0  0  0
    3.5200   -2.0632    0.0000 H   0  0  0  0  0  0  0  0  0  0  0  0
    5.6762   -2.0632    0.0000 H   0  0  0  0  0  0  0  0  0  0  0  0
    6.0747   -1.3729    0.0000 H   0  0  0  0  0  0  0  0  0  0  0  0
    4.3860    1.6020    0.0000 H   0  0  0  0  0  0  0  0  0  0  0  0
    3.9875    0.9118    0.0000 H   0  0  0  0  0  0  0  0  0  0  0  0
    5.6762    0.9368    0.0000 H   0  0  0  0  0  0  0  0  0  0  0  0
    6.0747    1.6271    0.0000 H   0  0  0  0  0  0  0  0  0  0  0  0
    3.7336   -5.0210    0.0000 H   0  0  0  0  0  0  0  0  0  0  0  0
    5.4625   -5.0210    0.0000 H   0  0  0  0  0  0  0  0  0  0  0  0
    7.1962    1.8994    0.0000 H   0  0  0  0  0  0  0  0  0  0  0  0
    5.7932    4.3294    0.0000 H   0  0  0  0  0  0  0  0  0  0  0  0
    8.5991    2.7094    0.0000 H   0  0  0  0  0  0  0  0  0  0  0  0
    7.1962    5.1394    0.0000 H   0  0  0  0  0  0  0  0  0  0  0  0
    8.5991    4.3294    0.0000 H   0  0  0  0  0  0  0  0  0  0  0  0
    3.2646    3.4944    0.0000 H   0  0  0  0  0  0  0  0  0  0  0  0
    2.4675    3.4944    0.0000 H   0  0  0  0  0  0  0  0  0  0  0  0
    1.6900    3.0564    0.0000 H   0  0  0  0  0  0  0  0  0  0  0  0
    1.4631    2.2094    0.0000 H   0  0  0  0  0  0  0  0  0  0  0  0
    2.3100    1.9825    0.0000 H   0  0  0  0  0  0  0  0  0  0  0  0
  1 13  1  0  0  0  0
  1 16  1  0  0  0  0
  2  6  1  0  0  0  0
  2 23  1  0  0  0  0
  3  7  1  0  0  0  0
  3  8  1  0  0  0  0
  3 11  1  0  0  0  0
  4  9  1  0  0  0  0
  4 10  1  0  0  0  0
  4 13  1  0  0  0  0
  5 13  2  0  0  0  0
  5 17  1  0  0  0  0
  6 14  2  0  0  0  0
  7  9  1  0  0  0  0
  7 25  1  0  0  0  0
  7 26  1  0  0  0  0
  8 10  1  0  0  0  0
  8 27  1  0  0  0  0
  8 28  1  0  0  0  0
  9 29  1  0  0  0  0
  9 30  1  0  0  0  0
 10 31  1  0  0  0  0
 10 32  1  0  0  0  0
 11 12  1  0  0  0  0
 11 33  1  0  0  0  0
 11 34  1  0  0  0  0
 12 14  1  0  0  0  0
 12 35  1  0  0  0  0
 12 36  1  0  0  0  0
 14 15  1  0  0  0  0
 15 18  2  0  0  0  0
 15 19  1  0  0  0  0
 16 17  2  0  0  0  0
 16 37  1  0  0  0  0
 17 38  1  0  0  0  0
 18 20  1  0  0  0  0
 18 39  1  0  0  0  0
 19 21  2  0  0  0  0
 19 40  1  0  0  0  0
 20 22  2  0  0  0  0
 20 41  1  0  0  0  0
 21 22  1  0  0  0  0
 21 42  1  0  0  0  0
 22 43  1  0  0  0  0
 23 24  1  0  0  0  0
 23 44  1  0  0  0  0
 23 45  1  0  0  0  0
 24 46  1  0  0  0  0
 24 47  1  0  0  0  0
 24 48  1  0  0  0  0
M  END
> <PUBCHEM_COMPOUND_CID>
11849736

> <PUBCHEM_COMPOUND_CANONICALIZED>
1

> <PUBCHEM_CACTVS_COMPLEXITY>
393

> <PUBCHEM_CACTVS_HBOND_ACCEPTOR>
6

> <PUBCHEM_CACTVS_HBOND_DONOR>
0

> <PUBCHEM_CACTVS_ROTATABLE_BOND>
7

> <PUBCHEM_CACTVS_SUBSKEYS>
AAADceB7oABAAAAAAAAAAAAAAAAAAWAAAAA8QAAAAAAAAAABwAAAHgQEAAAADAjl2ga/kZMYEAikAzBnZAAC8KlxCjhJyAw4IJiIYKKAmRCUIAAogAKIiCcQgIAOAAAAAAAAAAAAAAAAAAAAAAAAAAAAAA==

> <PUBCHEM_IUPAC_OPENEYE_NAME>
(E)-N-ethoxy-1-phenyl-3-(4-thiazol-2-ylpiperazin-1-yl)propan-1-imine

> <PUBCHEM_IUPAC_CAS_NAME>
(E)-N-ethoxy-1-phenyl-3-[4-(2-thiazolyl)-1-piperazinyl]-1-propanimine

> <PUBCHEM_IUPAC_NAME_MARKUP>
(<I>E</I>)-<I>N</I>-ethoxy-1-phenyl-3-[4-(1,3-thiazol-2-yl)piperazin-1-yl]propan-1-imine

> <PUBCHEM_IUPAC_NAME>
(E)-N-ethoxy-1-phenyl-3-[4-(1,3-thiazol-2-yl)piperazin-1-yl]propan-1-imine

> <PUBCHEM_IUPAC_SYSTEMATIC_NAME>
(E)-N-ethoxy-1-phenyl-3-[4-(1,3-thiazol-2-yl)piperazin-1-yl]propan-1-imine

> <PUBCHEM_IUPAC_TRADITIONAL_NAME>
(E)-ethoxy-[1-phenyl-3-(4-thiazol-2-ylpiperazino)propylidene]amine

> <PUBCHEM_IUPAC_INCHI>
InChI=1S/C18H24N4OS/c1-2-23-20-17(16-6-4-3-5-7-16)8-10-21-11-13-22(14-12-21)18-19-9-15-24-18/h3-7,9,15H,2,8,10-14H2,1H3/b20-17+

> <PUBCHEM_IUPAC_INCHIKEY>
JHVJCSPJYFYTJV-LVZFUZTISA-N

> <PUBCHEM_XLOGP3_AA>
3.5

> <PUBCHEM_EXACT_MASS>
344.16708258

> <PUBCHEM_MOLECULAR_FORMULA>
C18H24N4OS

> <PUBCHEM_MOLECULAR_WEIGHT>
344.5

> <PUBCHEM_OPENEYE_CAN_SMILES>
CCON=C(CCN1CCN(CC1)C2=NC=CS2)C3=CC=CC=C3

> <PUBCHEM_OPENEYE_ISO_SMILES>
CCO/N=C(\CCN1CCN(CC1)C2=NC=CS2)/C3=CC=CC=C3

> <PUBCHEM_CACTVS_TPSA>
69.2

> <PUBCHEM_MONOISOTOPIC_WEIGHT>
344.16708258

> <PUBCHEM_TOTAL_CHARGE>
0

> <PUBCHEM_HEAVY_ATOM_COUNT>
24

> <PUBCHEM_ATOM_DEF_STEREO_COUNT>
0

> <PUBCHEM_ATOM_UDEF_STEREO_COUNT>
0

> <PUBCHEM_BOND_DEF_STEREO_COUNT>
1

> <PUBCHEM_BOND_UDEF_STEREO_COUNT>
0

> <PUBCHEM_ISOTOPIC_ATOM_COUNT>
0

> <PUBCHEM_COMPONENT_COUNT>
1

> <PUBCHEM_CACTVS_TAUTO_COUNT>
-1

> <PUBCHEM_COORDINATE_TYPE>
1
5
255

> <PUBCHEM_BONDANNOTATIONS>
1  13  8
1  16  8
15  18  8
15  19  8
16  17  8
18  20  8
19  21  8
20  22  8
21  22  8
5  13  8
5  17  8

$$$$
