164614555
  -OEChem-09292322432D

 71 74  0     1  0  0  0  0  0999 V2000
   12.1210    3.8258    0.0000 Cl  0  0  0  0  0  0  0  0  0  0  0  0
   10.4226    0.6454    0.0000 O   0  0  0  0  0  0  0  0  0  0  0  0
   10.7827    2.3396    0.0000 O   0  0  0  0  0  0  0  0  0  0  0  0
   13.3571    0.0216    0.0000 O   0  0  0  0  0  0  0  0  0  0  0  0
    4.6783   -1.2235    0.0000 O   0  0  0  0  0  0  0  0  0  0  0  0
    6.7619    0.4473    0.0000 O   0  0  0  0  0  0  0  0  0  0  0  0
   10.7619   -3.0168    0.0000 N   0  0  3  0  0  0  0  0  0  0  0  0
   11.7098   -0.5136    0.0000 N   0  0  0  0  0  0  0  0  0  0  0  0
    6.7619   -1.2848    0.0000 N   0  0  0  0  0  0  0  0  0  0  0  0
   11.3497   -2.2078    0.0000 C   0  0  1  0  0  0  0  0  0  0  0  0
   12.3007   -2.5168    0.0000 C   0  0  0  0  0  0  0  0  0  0  0  0
   11.3497   -3.8258    0.0000 C   0  0  0  0  0  0  0  0  0  0  0  0
   12.3007   -3.5168    0.0000 C   0  0  0  0  0  0  0  0  0  0  0  0
    9.7619   -3.0168    0.0000 C   0  0  0  0  0  0  0  0  0  0  0  0
   11.0406   -1.2568    0.0000 C   0  0  0  0  0  0  0  0  0  0  0  0
    9.2619   -2.1508    0.0000 C   0  0  0  0  0  0  0  0  0  0  0  0
    8.2619   -2.1508    0.0000 C   0  0  0  0  0  0  0  0  0  0  0  0
    7.7619   -1.2848    0.0000 C   0  0  0  0  0  0  0  0  0  0  0  0
   11.4008    0.4374    0.0000 C   0  0  0  0  0  0  0  0  0  0  0  0
   12.0699    1.1806    0.0000 C   0  0  0  0  0  0  0  0  0  0  0  0
   13.0480    0.9727    0.0000 C   0  0  0  0  0  0  0  0  0  0  0  0
   11.7609    2.1316    0.0000 C   0  0  0  0  0  0  0  0  0  0  0  0
    6.2619   -0.4188    0.0000 C   0  0  0  0  0  0  0  0  0  0  0  0
   13.7172    1.7158    0.0000 C   0  0  0  0  0  0  0  0  0  0  0  0
   12.4300    2.8748    0.0000 C   0  0  0  0  0  0  0  0  0  0  0  0
   13.4082    2.6669    0.0000 C   0  0  0  0  0  0  0  0  0  0  0  0
    5.2619   -0.4188    0.0000 C   0  0  0  0  0  0  0  0  0  0  0  0
   14.6953    1.5079    0.0000 C   0  0  0  0  0  0  0  0  0  0  0  0
    4.6783    0.3860    0.0000 C   0  0  0  0  0  0  0  0  0  0  0  0
   15.3644    2.2511    0.0000 C   0  0  0  0  0  0  0  0  0  0  0  0
    3.7320    0.0812    0.0000 C   0  0  0  0  0  0  0  0  0  0  0  0
    3.7320   -0.9188    0.0000 C   0  0  0  0  0  0  0  0  0  0  0  0
   10.4737    3.2906    0.0000 C   0  0  0  0  0  0  0  0  0  0  0  0
    2.8660    0.5812    0.0000 C   0  0  0  0  0  0  0  0  0  0  0  0
    2.8660   -1.4188    0.0000 C   0  0  0  0  0  0  0  0  0  0  0  0
    2.0000    0.0812    0.0000 C   0  0  0  0  0  0  0  0  0  0  0  0
    2.0000   -0.9188    0.0000 C   0  0  0  0  0  0  0  0  0  0  0  0
   10.7373   -2.1108    0.0000 H   0  0  0  0  0  0  0  0  0  0  0  0
   12.9173   -2.5816    0.0000 H   0  0  0  0  0  0  0  0  0  0  0  0
   12.4296   -1.9104    0.0000 H   0  0  0  0  0  0  0  0  0  0  0  0
   10.8127   -4.1358    0.0000 H   0  0  0  0  0  0  0  0  0  0  0  0
   11.6018   -4.3922    0.0000 H   0  0  0  0  0  0  0  0  0  0  0  0
   12.4296   -4.1233    0.0000 H   0  0  0  0  0  0  0  0  0  0  0  0
   12.9173   -3.4520    0.0000 H   0  0  0  0  0  0  0  0  0  0  0  0
    9.1793   -3.2289    0.0000 H   0  0  0  0  0  0  0  0  0  0  0  0
    9.8695   -3.6274    0.0000 H   0  0  0  0  0  0  0  0  0  0  0  0
   10.6589   -0.7682    0.0000 H   0  0  0  0  0  0  0  0  0  0  0  0
   10.4932   -1.5478    0.0000 H   0  0  0  0  0  0  0  0  0  0  0  0
    9.8445   -1.9388    0.0000 H   0  0  0  0  0  0  0  0  0  0  0  0
    9.1542   -1.5402    0.0000 H   0  0  0  0  0  0  0  0  0  0  0  0
    7.6793   -2.3629    0.0000 H   0  0  0  0  0  0  0  0  0  0  0  0
    8.3695   -2.7614    0.0000 H   0  0  0  0  0  0  0  0  0  0  0  0
   12.3162   -0.6425    0.0000 H   0  0  0  0  0  0  0  0  0  0  0  0
    8.3445   -1.0727    0.0000 H   0  0  0  0  0  0  0  0  0  0  0  0
    7.6542   -0.6742    0.0000 H   0  0  0  0  0  0  0  0  0  0  0  0
    6.4519   -1.8217    0.0000 H   0  0  0  0  0  0  0  0  0  0  0  0
   13.8230    3.1276    0.0000 H   0  0  0  0  0  0  0  0  0  0  0  0
   14.4631    0.9331    0.0000 H   0  0  0  0  0  0  0  0  0  0  0  0
   15.2211    1.1794    0.0000 H   0  0  0  0  0  0  0  0  0  0  0  0
   13.9635   -0.1073    0.0000 H   0  0  0  0  0  0  0  0  0  0  0  0
    4.8709    0.9753    0.0000 H   0  0  0  0  0  0  0  0  0  0  0  0
   15.8252    1.8362    0.0000 H   0  0  0  0  0  0  0  0  0  0  0  0
   15.7793    2.7118    0.0000 H   0  0  0  0  0  0  0  0  0  0  0  0
   14.9037    2.6659    0.0000 H   0  0  0  0  0  0  0  0  0  0  0  0
   11.0634    3.4822    0.0000 H   0  0  0  0  0  0  0  0  0  0  0  0
   10.2821    3.8803    0.0000 H   0  0  0  0  0  0  0  0  0  0  0  0
    9.8841    3.0990    0.0000 H   0  0  0  0  0  0  0  0  0  0  0  0
    2.8660    1.2012    0.0000 H   0  0  0  0  0  0  0  0  0  0  0  0
    2.8660   -2.0388    0.0000 H   0  0  0  0  0  0  0  0  0  0  0  0
    1.4631    0.3912    0.0000 H   0  0  0  0  0  0  0  0  0  0  0  0
    1.4631   -1.2288    0.0000 H   0  0  0  0  0  0  0  0  0  0  0  0
  1 25  1  0  0  0  0
  2 19  2  0  0  0  0
  3 22  1  0  0  0  0
  3 33  1  0  0  0  0
  4 21  1  0  0  0  0
  4 60  1  0  0  0  0
  5 27  1  0  0  0  0
  5 32  1  0  0  0  0
  6 23  2  0  0  0  0
  7 10  1  0  0  0  0
  7 12  1  0  0  0  0
  7 14  1  0  0  0  0
  8 15  1  0  0  0  0
  8 19  1  0  0  0  0
  8 53  1  0  0  0  0
  9 18  1  0  0  0  0
  9 23  1  0  0  0  0
  9 56  1  0  0  0  0
 10 11  1  0  0  0  0
 10 15  1  6  0  0  0
 10 38  1  0  0  0  0
 11 13  1  0  0  0  0
 11 39  1  0  0  0  0
 11 40  1  0  0  0  0
 12 13  1  0  0  0  0
 12 41  1  0  0  0  0
 12 42  1  0  0  0  0
 13 43  1  0  0  0  0
 13 44  1  0  0  0  0
 14 16  1  0  0  0  0
 14 45  1  0  0  0  0
 14 46  1  0  0  0  0
 15 47  1  0  0  0  0
 15 48  1  0  0  0  0
 16 17  1  0  0  0  0
 16 49  1  0  0  0  0
 16 50  1  0  0  0  0
 17 18  1  0  0  0  0
 17 51  1  0  0  0  0
 17 52  1  0  0  0  0
 18 54  1  0  0  0  0
 18 55  1  0  0  0  0
 19 20  1  0  0  0  0
 20 21  2  0  0  0  0
 20 22  1  0  0  0  0
 21 24  1  0  0  0  0
 22 25  2  0  0  0  0
 23 27  1  0  0  0  0
 24 26  2  0  0  0  0
 24 28  1  0  0  0  0
 25 26  1  0  0  0  0
 26 57  1  0  0  0  0
 27 29  2  0  0  0  0
 28 30  1  0  0  0  0
 28 58  1  0  0  0  0
 28 59  1  0  0  0  0
 29 31  1  0  0  0  0
 29 61  1  0  0  0  0
 30 62  1  0  0  0  0
 30 63  1  0  0  0  0
 30 64  1  0  0  0  0
 31 32  1  0  0  0  0
 31 34  2  0  0  0  0
 32 35  2  0  0  0  0
 33 65  1  0  0  0  0
 33 66  1  0  0  0  0
 33 67  1  0  0  0  0
 34 36  1  0  0  0  0
 34 68  1  0  0  0  0
 35 37  1  0  0  0  0
 35 69  1  0  0  0  0
 36 37  2  0  0  0  0
 36 70  1  0  0  0  0
 37 71  1  0  0  0  0
M  END
> <PUBCHEM_COMPOUND_CID>
164614555

> <PUBCHEM_COMPOUND_CANONICALIZED>
1

> <PUBCHEM_CACTVS_COMPLEXITY>
757

> <PUBCHEM_CACTVS_HBOND_ACCEPTOR>
6

> <PUBCHEM_CACTVS_HBOND_DONOR>
3

> <PUBCHEM_CACTVS_ROTATABLE_BOND>
11

> <PUBCHEM_CACTVS_SUBSKEYS>
AAADcfB7OAAEAAAAAAAAAAAAAAAAAWJAAAAwYAAAAAAAAEgB9AAAHgIQCAAADC7BmCYyBsPABkCIAqFSEAKCCAAkJUAIiIHOD8gOZzeHtz+XeWjn9hWYuYeY/+7uICACKAAICABAQARQABAQAAAAAAAAAA==

> <PUBCHEM_IUPAC_OPENEYE_NAME>
N-[4-[(2S)-2-[[(5-chloro-3-ethyl-2-hydroxy-6-methoxy-benzoyl)amino]methyl]pyrrolidin-1-yl]butyl]benzofuran-2-carboxamide

> <PUBCHEM_IUPAC_CAS_NAME>
N-[4-[(2S)-2-[[[(5-chloro-3-ethyl-2-hydroxy-6-methoxyphenyl)-oxomethyl]amino]methyl]-1-pyrrolidinyl]butyl]-2-benzofurancarboxamide

> <PUBCHEM_IUPAC_NAME_MARKUP>
<I>N</I>-[4-[(2<I>S</I>)-2-[[(5-chloro-3-ethyl-2-hydroxy-6-methoxybenzoyl)amino]methyl]pyrrolidin-1-yl]butyl]-1-benzofuran-2-carboxamide

> <PUBCHEM_IUPAC_NAME>
N-[4-[(2S)-2-[[(5-chloro-3-ethyl-2-hydroxy-6-methoxybenzoyl)amino]methyl]pyrrolidin-1-yl]butyl]-1-benzofuran-2-carboxamide

> <PUBCHEM_IUPAC_SYSTEMATIC_NAME>
N-[4-[(2S)-2-[[(3-chloranyl-5-ethyl-2-methoxy-6-oxidanyl-phenyl)carbonylamino]methyl]pyrrolidin-1-yl]butyl]-1-benzofuran-2-carboxamide

> <PUBCHEM_IUPAC_TRADITIONAL_NAME>
N-[4-[(2S)-2-[[(5-chloro-3-ethyl-2-hydroxy-6-methoxy-benzoyl)amino]methyl]pyrrolidino]butyl]coumarilamide

> <PUBCHEM_IUPAC_INCHI>
InChI=1S/C28H34ClN3O5/c1-3-18-15-21(29)26(36-2)24(25(18)33)28(35)31-17-20-10-8-14-32(20)13-7-6-12-30-27(34)23-16-19-9-4-5-11-22(19)37-23/h4-5,9,11,15-16,20,33H,3,6-8,10,12-14,17H2,1-2H3,(H,30,34)(H,31,35)/t20-/m0/s1

> <PUBCHEM_IUPAC_INCHIKEY>
MQXNRLRUBRWERN-FQEVSTJZSA-N

> <PUBCHEM_XLOGP3_AA>
5.8

> <PUBCHEM_EXACT_MASS>
527.2186989

> <PUBCHEM_MOLECULAR_FORMULA>
C28H34ClN3O5

> <PUBCHEM_MOLECULAR_WEIGHT>
528.0

> <PUBCHEM_OPENEYE_CAN_SMILES>
CCC1=CC(=C(C(=C1O)C(=O)NCC2CCCN2CCCCNC(=O)C3=CC4=CC=CC=C4O3)OC)Cl

> <PUBCHEM_OPENEYE_ISO_SMILES>
CCC1=CC(=C(C(=C1O)C(=O)NC[C@@H]2CCCN2CCCCNC(=O)C3=CC4=CC=CC=C4O3)OC)Cl

> <PUBCHEM_CACTVS_TPSA>
104

> <PUBCHEM_MONOISOTOPIC_WEIGHT>
527.2186989

> <PUBCHEM_TOTAL_CHARGE>
0

> <PUBCHEM_HEAVY_ATOM_COUNT>
37

> <PUBCHEM_ATOM_DEF_STEREO_COUNT>
1

> <PUBCHEM_ATOM_UDEF_STEREO_COUNT>
0

> <PUBCHEM_BOND_DEF_STEREO_COUNT>
0

> <PUBCHEM_BOND_UDEF_STEREO_COUNT>
0

> <PUBCHEM_ISOTOPIC_ATOM_COUNT>
0

> <PUBCHEM_COMPONENT_COUNT>
1

> <PUBCHEM_CACTVS_TAUTO_COUNT>
-1

> <PUBCHEM_COORDINATE_TYPE>
1
5
255

> <PUBCHEM_BONDANNOTATIONS>
10  15  6
20  21  8
20  22  8
21  24  8
22  25  8
24  26  8
25  26  8
27  29  8
29  31  8
31  32  8
31  34  8
32  35  8
34  36  8
35  37  8
36  37  8
5  27  8
5  32  8

$$$$
