155513529
  -OEChem-09292322402D

 54 57  0     1  0  0  0  0  0999 V2000
   14.1413    0.0908    0.0000 S   0  0  0  0  0  0  0  0  0  0  0  0
    6.9999    0.9825    0.0000 N   0  0  0  0  0  0  0  0  0  0  0  0
   11.0085   -0.7296    0.0000 N   0  0  3  0  0  0  0  0  0  0  0  0
    5.0000    0.9725    0.0000 N   0  0  0  0  0  0  0  0  0  0  0  0
   14.1494   -1.5187    0.0000 N   0  0  0  0  0  0  0  0  0  0  0  0
    3.4957    1.8311    0.0000 N   0  0  0  0  0  0  0  0  0  0  0  0
    3.5043    0.0990    0.0000 N   0  0  0  0  0  0  0  0  0  0  0  0
    7.9999    0.9875    0.0000 C   0  0  0  0  0  0  0  0  0  0  0  0
    6.5043    0.1140    0.0000 C   0  0  0  0  0  0  0  0  0  0  0  0
    6.4956    1.8460    0.0000 C   0  0  0  0  0  0  0  0  0  0  0  0
    8.5042    0.1240    0.0000 C   0  0  0  0  0  0  0  0  0  0  0  0
    9.5042    0.1290    0.0000 C   0  0  0  0  0  0  0  0  0  0  0  0
   10.0085   -0.7346    0.0000 C   0  0  0  0  0  0  0  0  0  0  0  0
    5.5043    0.1090    0.0000 C   0  0  0  0  0  0  0  0  0  0  0  0
    5.4956    1.8410    0.0000 C   0  0  0  0  0  0  0  0  0  0  0  0
   11.4379    0.1735    0.0000 C   0  0  0  0  0  0  0  0  0  0  0  0
   11.4469   -1.6284    0.0000 C   0  0  0  0  0  0  0  0  0  0  0  0
   12.4117    0.4009    0.0000 C   0  0  0  0  0  0  0  0  0  0  0  0
   12.4229   -1.8460    0.0000 C   0  0  0  0  0  0  0  0  0  0  0  0
   13.1966   -0.2187    0.0000 C   0  0  0  0  0  0  0  0  0  0  0  0
   13.2016   -1.2186    0.0000 C   0  0  0  0  0  0  0  0  0  0  0  0
    4.0000    0.9675    0.0000 C   0  0  0  0  0  0  0  0  0  0  0  0
   14.7290   -0.7110    0.0000 C   0  0  0  0  0  0  0  0  0  0  0  0
    2.4957    1.8261    0.0000 C   0  0  0  0  0  0  0  0  0  0  0  0
    2.5043    0.0941    0.0000 C   0  0  0  0  0  0  0  0  0  0  0  0
    2.0000    0.9576    0.0000 C   0  0  0  0  0  0  0  0  0  0  0  0
    8.5815    1.2024    0.0000 H   0  0  0  0  0  0  0  0  0  0  0  0
    7.8892    1.5975    0.0000 H   0  0  0  0  0  0  0  0  0  0  0  0
    6.3996   -0.4971    0.0000 H   0  0  0  0  0  0  0  0  0  0  0  0
    7.0879   -0.0951    0.0000 H   0  0  0  0  0  0  0  0  0  0  0  0
    7.0772    2.0610    0.0000 H   0  0  0  0  0  0  0  0  0  0  0  0
    6.3849    2.4561    0.0000 H   0  0  0  0  0  0  0  0  0  0  0  0
    7.9227   -0.0910    0.0000 H   0  0  0  0  0  0  0  0  0  0  0  0
    8.6149   -0.4861    0.0000 H   0  0  0  0  0  0  0  0  0  0  0  0
   10.0858    0.3439    0.0000 H   0  0  0  0  0  0  0  0  0  0  0  0
    9.3935    0.7390    0.0000 H   0  0  0  0  0  0  0  0  0  0  0  0
    9.4270   -0.9495    0.0000 H   0  0  0  0  0  0  0  0  0  0  0  0
   10.1192   -1.3446    0.0000 H   0  0  0  0  0  0  0  0  0  0  0  0
    4.9227   -0.1059    0.0000 H   0  0  0  0  0  0  0  0  0  0  0  0
    5.6150   -0.5010    0.0000 H   0  0  0  0  0  0  0  0  0  0  0  0
    5.6002    2.4522    0.0000 H   0  0  0  0  0  0  0  0  0  0  0  0
    4.9120    2.0502    0.0000 H   0  0  0  0  0  0  0  0  0  0  0  0
   11.4348    0.7935    0.0000 H   0  0  0  0  0  0  0  0  0  0  0  0
   10.8328    0.3085    0.0000 H   0  0  0  0  0  0  0  0  0  0  0  0
   10.8431   -1.7694    0.0000 H   0  0  0  0  0  0  0  0  0  0  0  0
   11.4500   -2.2484    0.0000 H   0  0  0  0  0  0  0  0  0  0  0  0
   12.8945    0.7899    0.0000 H   0  0  0  0  0  0  0  0  0  0  0  0
   12.1399    0.9582    0.0000 H   0  0  0  0  0  0  0  0  0  0  0  0
   12.1567   -2.4060    0.0000 H   0  0  0  0  0  0  0  0  0  0  0  0
   12.9096   -2.2302    0.0000 H   0  0  0  0  0  0  0  0  0  0  0  0
   15.3489   -0.7079    0.0000 H   0  0  0  0  0  0  0  0  0  0  0  0
    2.1830    2.3615    0.0000 H   0  0  0  0  0  0  0  0  0  0  0  0
    2.1970   -0.4444    0.0000 H   0  0  0  0  0  0  0  0  0  0  0  0
    1.3800    0.9545    0.0000 H   0  0  0  0  0  0  0  0  0  0  0  0
  1 20  1  0  0  0  0
  1 23  1  0  0  0  0
  2  8  1  0  0  0  0
  2  9  1  0  0  0  0
  2 10  1  0  0  0  0
  3 13  1  0  0  0  0
  3 16  1  0  0  0  0
  3 17  1  0  0  0  0
  4 14  1  0  0  0  0
  4 15  1  0  0  0  0
  4 22  1  0  0  0  0
  5 21  1  0  0  0  0
  5 23  2  0  0  0  0
  6 22  2  0  0  0  0
  6 24  1  0  0  0  0
  7 22  1  0  0  0  0
  7 25  2  0  0  0  0
  8 11  1  0  0  0  0
  8 27  1  0  0  0  0
  8 28  1  0  0  0  0
  9 14  1  0  0  0  0
  9 29  1  0  0  0  0
  9 30  1  0  0  0  0
 10 15  1  0  0  0  0
 10 31  1  0  0  0  0
 10 32  1  0  0  0  0
 11 12  1  0  0  0  0
 11 33  1  0  0  0  0
 11 34  1  0  0  0  0
 12 13  1  0  0  0  0
 12 35  1  0  0  0  0
 12 36  1  0  0  0  0
 13 37  1  0  0  0  0
 13 38  1  0  0  0  0
 14 39  1  0  0  0  0
 14 40  1  0  0  0  0
 15 41  1  0  0  0  0
 15 42  1  0  0  0  0
 16 18  1  0  0  0  0
 16 43  1  0  0  0  0
 16 44  1  0  0  0  0
 17 19  1  0  0  0  0
 17 45  1  0  0  0  0
 17 46  1  0  0  0  0
 18 20  1  0  0  0  0
 18 47  1  0  0  0  0
 18 48  1  0  0  0  0
 19 21  1  0  0  0  0
 19 49  1  0  0  0  0
 19 50  1  0  0  0  0
 20 21  2  0  0  0  0
 23 51  1  0  0  0  0
 24 26  2  0  0  0  0
 24 52  1  0  0  0  0
 25 26  1  0  0  0  0
 25 53  1  0  0  0  0
 26 54  1  0  0  0  0
M  END
> <PUBCHEM_COMPOUND_CID>
155513529

> <PUBCHEM_COMPOUND_CANONICALIZED>
1

> <PUBCHEM_CACTVS_COMPLEXITY>
411

> <PUBCHEM_CACTVS_HBOND_ACCEPTOR>
7

> <PUBCHEM_CACTVS_HBOND_DONOR>
0

> <PUBCHEM_CACTVS_ROTATABLE_BOND>
6

> <PUBCHEM_CACTVS_SUBSKEYS>
AAADceB7gABAAAAAAAAAAAAAAAAAAWAAAAAsWAAABYAAAACx4AAAHAQAAAAACAjBVgS9kZcIEAikATRnZACA8KlxCrgJWDQ4ZBiAaIJgyUEUBAgoAALISCMQAAAAAAAAAAAAAAAAAAAAAAAAAAAAAAAAAA==

> <PUBCHEM_IUPAC_OPENEYE_NAME>
6-[4-(4-pyrimidin-2-ylpiperazin-1-yl)butyl]-4,5,7,8-tetrahydrothiazolo[4,5-d]azepine

> <PUBCHEM_IUPAC_CAS_NAME>
6-[4-[4-(2-pyrimidinyl)-1-piperazinyl]butyl]-4,5,7,8-tetrahydrothiazolo[4,5-d]azepine

> <PUBCHEM_IUPAC_NAME_MARKUP>
6-[4-(4-pyrimidin-2-ylpiperazin-1-yl)butyl]-4,5,7,8-tetrahydro-[1,3]thiazolo[4,5-d]azepine

> <PUBCHEM_IUPAC_NAME>
6-[4-(4-pyrimidin-2-ylpiperazin-1-yl)butyl]-4,5,7,8-tetrahydro-[1,3]thiazolo[4,5-d]azepine

> <PUBCHEM_IUPAC_SYSTEMATIC_NAME>
6-[4-(4-pyrimidin-2-ylpiperazin-1-yl)butyl]-4,5,7,8-tetrahydro-[1,3]thiazolo[4,5-d]azepine

> <PUBCHEM_IUPAC_TRADITIONAL_NAME>
6-[4-[4-(2-pyrimidyl)piperazino]butyl]-4,5,7,8-tetrahydrothiazol[4,5-d]azepine

> <PUBCHEM_IUPAC_INCHI>
InChI=1S/C19H28N6S/c1(8-23-10-4-17-18(5-11-23)26-16-22-17)2-9-24-12-14-25(15-13-24)19-20-6-3-7-21-19/h3,6-7,16H,1-2,4-5,8-15H2

> <PUBCHEM_IUPAC_INCHIKEY>
KTMPMYIMDGPOKZ-UHFFFAOYSA-N

> <PUBCHEM_XLOGP3_AA>
2.3

> <PUBCHEM_EXACT_MASS>
372.20961609

> <PUBCHEM_MOLECULAR_FORMULA>
C19H28N6S

> <PUBCHEM_MOLECULAR_WEIGHT>
372.5

> <PUBCHEM_OPENEYE_CAN_SMILES>
C1CN(CCC2=C1N=CS2)CCCCN3CCN(CC3)C4=NC=CC=N4

> <PUBCHEM_OPENEYE_ISO_SMILES>
C1CN(CCC2=C1N=CS2)CCCCN3CCN(CC3)C4=NC=CC=N4

> <PUBCHEM_CACTVS_TPSA>
76.6

> <PUBCHEM_MONOISOTOPIC_WEIGHT>
372.20961609

> <PUBCHEM_TOTAL_CHARGE>
0

> <PUBCHEM_HEAVY_ATOM_COUNT>
26

> <PUBCHEM_ATOM_DEF_STEREO_COUNT>
0

> <PUBCHEM_ATOM_UDEF_STEREO_COUNT>
0

> <PUBCHEM_BOND_DEF_STEREO_COUNT>
0

> <PUBCHEM_BOND_UDEF_STEREO_COUNT>
0

> <PUBCHEM_ISOTOPIC_ATOM_COUNT>
0

> <PUBCHEM_COMPONENT_COUNT>
1

> <PUBCHEM_CACTVS_TAUTO_COUNT>
-1

> <PUBCHEM_COORDINATE_TYPE>
1
5
255

> <PUBCHEM_BONDANNOTATIONS>
1  20  8
1  23  8
20  21  8
24  26  8
25  26  8
5  21  8
5  23  8
6  22  8
6  24  8
7  22  8
7  25  8

$$$$
