45379370
  -OEChem-09292322292D

 44 47  0     1  0  0  0  0  0999 V2000
    4.2097    2.6784    0.0000 N   0  0  3  0  0  0  0  0  0  0  0  0
    2.6067   -0.4887    0.0000 N   0  0  0  0  0  0  0  0  0  0  0  0
    4.2097   -0.3216    0.0000 C   0  0  0  0  0  0  0  0  0  0  0  0
    3.3437    0.1784    0.0000 C   0  0  0  0  0  0  0  0  0  0  0  0
    3.3437    1.1784    0.0000 C   0  0  0  0  0  0  0  0  0  0  0  0
    5.0757    0.1784    0.0000 C   0  0  0  0  0  0  0  0  0  0  0  0
    4.2097    1.6784    0.0000 C   0  0  0  0  0  0  0  0  0  0  0  0
    4.0005   -1.2934    0.0000 C   0  0  0  0  0  0  0  0  0  0  0  0
    5.0757    3.1784    0.0000 C   0  0  0  0  0  0  0  0  0  0  0  0
    5.0757    1.1784    0.0000 C   0  0  0  0  0  0  0  0  0  0  0  0
    5.9418    2.6784    0.0000 C   0  0  0  0  0  0  0  0  0  0  0  0
    5.9418    1.6784    0.0000 C   0  0  0  0  0  0  0  0  0  0  0  0
    3.0118   -1.3965    0.0000 C   0  0  0  0  0  0  0  0  0  0  0  0
    4.6213   -2.1222    0.0000 C   0  0  0  0  0  0  0  0  0  0  0  0
    3.3437    3.1784    0.0000 C   0  0  0  0  0  0  0  0  0  0  0  0
    4.8699   -0.3324    0.0000 C   0  0  0  0  0  0  0  0  0  0  0  0
    7.3531    1.1012    0.0000 C   0  0  0  0  0  0  0  0  0  0  0  0
    2.5753   -2.3355    0.0000 C   0  0  0  0  0  0  0  0  0  0  0  0
    4.2066   -3.0710    0.0000 C   0  0  0  0  0  0  0  0  0  0  0  0
    6.1358   -1.1824    0.0000 C   0  0  0  0  0  0  0  0  0  0  0  0
    3.1767   -3.1784    0.0000 C   0  0  0  0  0  0  0  0  0  0  0  0
    7.4562   -0.4200    0.0000 C   0  0  0  0  0  0  0  0  0  0  0  0
    3.1316    1.7610    0.0000 H   0  0  0  0  0  0  0  0  0  0  0  0
    2.7331    1.0707    0.0000 H   0  0  0  0  0  0  0  0  0  0  0  0
    5.2878   -0.4042    0.0000 H   0  0  0  0  0  0  0  0  0  0  0  0
    5.6863    0.2860    0.0000 H   0  0  0  0  0  0  0  0  0  0  0  0
    4.4218    1.0958    0.0000 H   0  0  0  0  0  0  0  0  0  0  0  0
    4.8203    1.7860    0.0000 H   0  0  0  0  0  0  0  0  0  0  0  0
    5.4743    3.6533    0.0000 H   0  0  0  0  0  0  0  0  0  0  0  0
    4.6772    3.6533    0.0000 H   0  0  0  0  0  0  0  0  0  0  0  0
    6.5524    2.5707    0.0000 H   0  0  0  0  0  0  0  0  0  0  0  0
    6.1538    3.2610    0.0000 H   0  0  0  0  0  0  0  0  0  0  0  0
    2.0000   -0.3609    0.0000 H   0  0  0  0  0  0  0  0  0  0  0  0
    5.2371   -2.0508    0.0000 H   0  0  0  0  0  0  0  0  0  0  0  0
    3.6537    3.7153    0.0000 H   0  0  0  0  0  0  0  0  0  0  0  0
    2.8068    3.4884    0.0000 H   0  0  0  0  0  0  0  0  0  0  0  0
    3.0337    2.6414    0.0000 H   0  0  0  0  0  0  0  0  0  0  0  0
    4.3043   -0.5864    0.0000 H   0  0  0  0  0  0  0  0  0  0  0  0
    7.8558    1.4641    0.0000 H   0  0  0  0  0  0  0  0  0  0  0  0
    1.9579   -2.3926    0.0000 H   0  0  0  0  0  0  0  0  0  0  0  0
    4.5725   -3.5715    0.0000 H   0  0  0  0  0  0  0  0  0  0  0  0
    6.1148   -1.8020    0.0000 H   0  0  0  0  0  0  0  0  0  0  0  0
    2.9219   -3.7436    0.0000 H   0  0  0  0  0  0  0  0  0  0  0  0
    8.0034   -0.7117    0.0000 H   0  0  0  0  0  0  0  0  0  0  0  0
  1  7  1  0  0  0  0
  1  9  1  0  0  0  0
  1 15  1  0  0  0  0
  2  4  1  0  0  0  0
  2 13  1  0  0  0  0
  2 33  1  0  0  0  0
  3  4  2  0  0  0  0
  3  6  1  0  0  0  0
  3  8  1  0  0  0  0
  4  5  1  0  0  0  0
  5  7  1  0  0  0  0
  5 23  1  0  0  0  0
  5 24  1  0  0  0  0
  6 10  1  0  0  0  0
  6 25  1  0  0  0  0
  6 26  1  0  0  0  0
  7 27  1  0  0  0  0
  7 28  1  0  0  0  0
  8 13  1  0  0  0  0
  8 14  2  0  0  0  0
  9 11  1  0  0  0  0
  9 29  1  0  0  0  0
  9 30  1  0  0  0  0
 10 12  1  0  0  0  0
 10 16  2  0  0  0  0
 11 12  1  0  0  0  0
 11 31  1  0  0  0  0
 11 32  1  0  0  0  0
 12 17  2  0  0  0  0
 13 18  2  0  0  0  0
 14 19  1  0  0  0  0
 14 34  1  0  0  0  0
 15 35  1  0  0  0  0
 15 36  1  0  0  0  0
 15 37  1  0  0  0  0
 16 20  1  0  0  0  0
 16 38  1  0  0  0  0
 17 22  1  0  0  0  0
 17 39  1  0  0  0  0
 18 21  1  0  0  0  0
 18 40  1  0  0  0  0
 19 21  2  0  0  0  0
 19 41  1  0  0  0  0
 20 22  2  0  0  0  0
 20 42  1  0  0  0  0
 21 43  1  0  0  0  0
 22 44  1  0  0  0  0
M  END
> <PUBCHEM_COMPOUND_CID>
45379370

> <PUBCHEM_COMPOUND_CANONICALIZED>
1

> <PUBCHEM_CACTVS_COMPLEXITY>
369

> <PUBCHEM_CACTVS_HBOND_ACCEPTOR>
1

> <PUBCHEM_CACTVS_HBOND_DONOR>
1

> <PUBCHEM_CACTVS_ROTATABLE_BOND>
0

> <PUBCHEM_CACTVS_SUBSKEYS>
AAADceB7AAAAAAAAAAAAAAAAAAAAAWAAAAAwYAAAAAAAAFix9AAAHAAQAAAADAjBHgQywPPJkACgAyRiRACCgCAhAiAImSA4ZJgIIOLA0ZGEIAhgkADIyAcQgMAOgAAAAAASAAAAAAAAACQAAAAAAAAAAA==

> <PUBCHEM_IUPAC_OPENEYE_NAME>
11-methyl-11,15-diazatetracyclo[12.7.0.03,8.016,21]henicosa-1(14),3,5,7,16,18,20-heptaene

> <PUBCHEM_IUPAC_CAS_NAME>
11-methyl-11,15-diazatetracyclo[12.7.0.03,8.016,21]heneicosa-1(14),3,5,7,16,18,20-heptaene

> <PUBCHEM_IUPAC_NAME_MARKUP>
11-methyl-11,15-diazatetracyclo[12.7.0.0<SUP>3,8</SUP>.0<SUP>16,21</SUP>]henicosa-1(14),3,5,7,16,18,20-heptaene

> <PUBCHEM_IUPAC_NAME>
11-methyl-11,15-diazatetracyclo[12.7.0.03,8.016,21]henicosa-1(14),3,5,7,16,18,20-heptaene

> <PUBCHEM_IUPAC_SYSTEMATIC_NAME>
11-methyl-11,15-diazatetracyclo[12.7.0.03,8.016,21]henicosa-1(14),3,5,7,16,18,20-heptaene

> <PUBCHEM_IUPAC_TRADITIONAL_NAME>
11-methyl-11,15-diazatetracyclo[12.7.0.03,8.016,21]heneicosa-1(14),3,5,7,16,18,20-heptaene

> <PUBCHEM_IUPAC_INCHI>
InChI=1S/C20H22N2/c1-22-12-10-15-6-2-3-7-16(15)14-18-17-8-4-5-9-19(17)21-20(18)11-13-22/h2-9,21H,10-14H2,1H3

> <PUBCHEM_IUPAC_INCHIKEY>
CYMMDQPIVHDAPZ-UHFFFAOYSA-N

> <PUBCHEM_XLOGP3_AA>
4.3

> <PUBCHEM_EXACT_MASS>
290.178298710

> <PUBCHEM_MOLECULAR_FORMULA>
C20H22N2

> <PUBCHEM_MOLECULAR_WEIGHT>
290.4

> <PUBCHEM_OPENEYE_CAN_SMILES>
CN1CCC2=CC=CC=C2CC3=C(CC1)NC4=CC=CC=C34

> <PUBCHEM_OPENEYE_ISO_SMILES>
CN1CCC2=CC=CC=C2CC3=C(CC1)NC4=CC=CC=C34

> <PUBCHEM_CACTVS_TPSA>
19

> <PUBCHEM_MONOISOTOPIC_WEIGHT>
290.178298710

> <PUBCHEM_TOTAL_CHARGE>
0

> <PUBCHEM_HEAVY_ATOM_COUNT>
22

> <PUBCHEM_ATOM_DEF_STEREO_COUNT>
0

> <PUBCHEM_ATOM_UDEF_STEREO_COUNT>
0

> <PUBCHEM_BOND_DEF_STEREO_COUNT>
0

> <PUBCHEM_BOND_UDEF_STEREO_COUNT>
0

> <PUBCHEM_ISOTOPIC_ATOM_COUNT>
0

> <PUBCHEM_COMPONENT_COUNT>
1

> <PUBCHEM_CACTVS_TAUTO_COUNT>
-1

> <PUBCHEM_COORDINATE_TYPE>
1
5
255

> <PUBCHEM_BONDANNOTATIONS>
10  12  8
10  16  8
12  17  8
13  18  8
14  19  8
16  20  8
17  22  8
18  21  8
19  21  8
2  13  8
2  4  8
20  22  8
3  4  8
3  8  8
8  13  8
8  14  8

$$$$
