90656834
  -OEChem-09292322352D

 47 48  0     1  0  0  0  0  0999 V2000
    2.0000   -5.4055    0.0000 F   0  0  0  0  0  0  0  0  0  0  0  0
    3.7320    0.5945    0.0000 O   0  0  0  0  0  0  0  0  0  0  0  0
    6.4347    3.0891    0.0000 N   0  0  3  0  0  0  0  0  0  0  0  0
    5.4641    0.5945    0.0000 N   0  0  0  0  0  0  0  0  0  0  0  0
    6.3301    2.0945    0.0000 C   0  0  1  0  0  0  0  0  0  0  0  0
    7.2437    1.6878    0.0000 C   0  0  0  0  0  0  0  0  0  0  0  0
    7.9128    2.4309    0.0000 C   0  0  0  0  0  0  0  0  0  0  0  0
    7.4128    3.2970    0.0000 C   0  0  0  0  0  0  0  0  0  0  0  0
    5.4641    1.5945    0.0000 C   0  0  0  0  0  0  0  0  0  0  0  0
    5.6915    3.7582    0.0000 C   0  0  0  0  0  0  0  0  0  0  0  0
    5.8994    4.7363    0.0000 C   0  0  0  0  0  0  0  0  0  0  0  0
    4.5981    0.0945    0.0000 C   0  0  0  0  0  0  0  0  0  0  0  0
    4.5981   -0.9055    0.0000 C   0  0  0  0  0  0  0  0  0  0  0  0
    5.1563    5.4055    0.0000 C   0  0  0  0  0  0  0  0  0  0  0  0
    3.7320   -1.4055    0.0000 C   0  0  0  0  0  0  0  0  0  0  0  0
    3.7320   -2.4055    0.0000 C   0  0  0  0  0  0  0  0  0  0  0  0
    2.8660   -2.9055    0.0000 C   0  0  0  0  0  0  0  0  0  0  0  0
    5.4641   -1.4055    0.0000 C   0  0  0  0  0  0  0  0  0  0  0  0
    2.8660   -3.9055    0.0000 C   0  0  0  0  0  0  0  0  0  0  0  0
    4.5981   -2.9055    0.0000 C   0  0  0  0  0  0  0  0  0  0  0  0
    5.4641   -2.4055    0.0000 C   0  0  0  0  0  0  0  0  0  0  0  0
    2.0000   -4.4055    0.0000 C   0  0  0  0  0  0  0  0  0  0  0  0
    5.8102    2.4322    0.0000 H   0  0  0  0  0  0  0  0  0  0  0  0
    6.9337    1.1509    0.0000 H   0  0  0  0  0  0  0  0  0  0  0  0
    7.7453    1.3234    0.0000 H   0  0  0  0  0  0  0  0  0  0  0  0
    8.3277    1.9702    0.0000 H   0  0  0  0  0  0  0  0  0  0  0  0
    8.4144    2.7954    0.0000 H   0  0  0  0  0  0  0  0  0  0  0  0
    7.9792    3.5491    0.0000 H   0  0  0  0  0  0  0  0  0  0  0  0
    7.2212    3.8866    0.0000 H   0  0  0  0  0  0  0  0  0  0  0  0
    5.2520    2.1771    0.0000 H   0  0  0  0  0  0  0  0  0  0  0  0
    4.8535    1.4869    0.0000 H   0  0  0  0  0  0  0  0  0  0  0  0
    5.1167    3.9904    0.0000 H   0  0  0  0  0  0  0  0  0  0  0  0
    5.3630    3.2324    0.0000 H   0  0  0  0  0  0  0  0  0  0  0  0
    6.0010    0.2845    0.0000 H   0  0  0  0  0  0  0  0  0  0  0  0
    6.4891    4.9279    0.0000 H   0  0  0  0  0  0  0  0  0  0  0  0
    5.2852    6.0119    0.0000 H   0  0  0  0  0  0  0  0  0  0  0  0
    4.5666    5.2139    0.0000 H   0  0  0  0  0  0  0  0  0  0  0  0
    3.1951   -1.0955    0.0000 H   0  0  0  0  0  0  0  0  0  0  0  0
    2.6540   -2.3229    0.0000 H   0  0  0  0  0  0  0  0  0  0  0  0
    2.2554   -3.0131    0.0000 H   0  0  0  0  0  0  0  0  0  0  0  0
    6.0010   -1.0955    0.0000 H   0  0  0  0  0  0  0  0  0  0  0  0
    3.0781   -4.4881    0.0000 H   0  0  0  0  0  0  0  0  0  0  0  0
    3.4766   -3.7978    0.0000 H   0  0  0  0  0  0  0  0  0  0  0  0
    4.5981   -3.5255    0.0000 H   0  0  0  0  0  0  0  0  0  0  0  0
    6.0010   -2.7155    0.0000 H   0  0  0  0  0  0  0  0  0  0  0  0
    1.7880   -3.8229    0.0000 H   0  0  0  0  0  0  0  0  0  0  0  0
    1.3894   -4.5131    0.0000 H   0  0  0  0  0  0  0  0  0  0  0  0
  1 22  1  0  0  0  0
  2 12  2  0  0  0  0
  3  5  1  0  0  0  0
  3  8  1  0  0  0  0
  3 10  1  0  0  0  0
  4  9  1  0  0  0  0
  4 12  1  0  0  0  0
  4 34  1  0  0  0  0
  5  6  1  0  0  0  0
  5  9  1  1  0  0  0
  5 23  1  0  0  0  0
  6  7  1  0  0  0  0
  6 24  1  0  0  0  0
  6 25  1  0  0  0  0
  7  8  1  0  0  0  0
  7 26  1  0  0  0  0
  7 27  1  0  0  0  0
  8 28  1  0  0  0  0
  8 29  1  0  0  0  0
  9 30  1  0  0  0  0
  9 31  1  0  0  0  0
 10 11  1  0  0  0  0
 10 32  1  0  0  0  0
 10 33  1  0  0  0  0
 11 14  2  0  0  0  0
 11 35  1  0  0  0  0
 12 13  1  0  0  0  0
 13 15  1  0  0  0  0
 13 18  2  0  0  0  0
 14 36  1  0  0  0  0
 14 37  1  0  0  0  0
 15 16  2  0  0  0  0
 15 38  1  0  0  0  0
 16 17  1  0  0  0  0
 16 20  1  0  0  0  0
 17 19  1  0  0  0  0
 17 39  1  0  0  0  0
 17 40  1  0  0  0  0
 18 21  1  0  0  0  0
 18 41  1  0  0  0  0
 19 22  1  0  0  0  0
 19 42  1  0  0  0  0
 19 43  1  0  0  0  0
 20 21  2  0  0  0  0
 20 44  1  0  0  0  0
 21 45  1  0  0  0  0
 22 46  1  0  0  0  0
 22 47  1  0  0  0  0
M  END
> <PUBCHEM_COMPOUND_CID>
90656834

> <PUBCHEM_COMPOUND_CANONICALIZED>
1

> <PUBCHEM_CACTVS_COMPLEXITY>
361

> <PUBCHEM_CACTVS_HBOND_ACCEPTOR>
3

> <PUBCHEM_CACTVS_HBOND_DONOR>
1

> <PUBCHEM_CACTVS_ROTATABLE_BOND>
8

> <PUBCHEM_CACTVS_SUBSKEYS>
AAADceB7IQAAAAAAAAAAAAAAAAAAAWAAAAAwAAAAAAAAAAABAAAAHwAQAAAADCjBmAQwAIPAAACIAiFSEACCAAAkAAAIiIEIBMgIYDKAlRGUIQhglgCIiYcYiMCOAAACAAAAAAAAAAQAAAAAAAAAAAAAAA==

> <PUBCHEM_IUPAC_OPENEYE_NAME>
N-[[(2S)-1-allylpyrrolidin-2-yl]methyl]-3-(3-fluoropropyl)benzamide

> <PUBCHEM_IUPAC_CAS_NAME>
3-(3-fluoropropyl)-N-[[(2S)-1-prop-2-enyl-2-pyrrolidinyl]methyl]benzamide

> <PUBCHEM_IUPAC_NAME_MARKUP>
3-(3-fluoropropyl)-<I>N</I>-[[(2<I>S</I>)-1-prop-2-enylpyrrolidin-2-yl]methyl]benzamide

> <PUBCHEM_IUPAC_NAME>
3-(3-fluoropropyl)-N-[[(2S)-1-prop-2-enylpyrrolidin-2-yl]methyl]benzamide

> <PUBCHEM_IUPAC_SYSTEMATIC_NAME>
3-(3-fluoranylpropyl)-N-[[(2S)-1-prop-2-enylpyrrolidin-2-yl]methyl]benzamide

> <PUBCHEM_IUPAC_TRADITIONAL_NAME>
N-[[(2S)-1-allylpyrrolidin-2-yl]methyl]-3-(3-fluoropropyl)benzamide

> <PUBCHEM_IUPAC_INCHI>
InChI=1S/C18H25FN2O/c1-2-11-21-12-5-9-17(21)14-20-18(22)16-8-3-6-15(13-16)7-4-10-19/h2-3,6,8,13,17H,1,4-5,7,9-12,14H2,(H,20,22)/t17-/m0/s1

> <PUBCHEM_IUPAC_INCHIKEY>
PFVOHXHHGRINAB-KRWDZBQOSA-N

> <PUBCHEM_XLOGP3_AA>
3.4

> <PUBCHEM_EXACT_MASS>
304.19509159

> <PUBCHEM_MOLECULAR_FORMULA>
C18H25FN2O

> <PUBCHEM_MOLECULAR_WEIGHT>
304.4

> <PUBCHEM_OPENEYE_CAN_SMILES>
C=CCN1CCCC1CNC(=O)C2=CC=CC(=C2)CCCF

> <PUBCHEM_OPENEYE_ISO_SMILES>
C=CCN1CCC[C@H]1CNC(=O)C2=CC=CC(=C2)CCCF

> <PUBCHEM_CACTVS_TPSA>
32.3

> <PUBCHEM_MONOISOTOPIC_WEIGHT>
304.19509159

> <PUBCHEM_TOTAL_CHARGE>
0

> <PUBCHEM_HEAVY_ATOM_COUNT>
22

> <PUBCHEM_ATOM_DEF_STEREO_COUNT>
1

> <PUBCHEM_ATOM_UDEF_STEREO_COUNT>
0

> <PUBCHEM_BOND_DEF_STEREO_COUNT>
0

> <PUBCHEM_BOND_UDEF_STEREO_COUNT>
0

> <PUBCHEM_ISOTOPIC_ATOM_COUNT>
0

> <PUBCHEM_COMPONENT_COUNT>
1

> <PUBCHEM_CACTVS_TAUTO_COUNT>
-1

> <PUBCHEM_COORDINATE_TYPE>
1
5
255

> <PUBCHEM_BONDANNOTATIONS>
13  15  8
13  18  8
15  16  8
16  20  8
18  21  8
20  21  8
5  9  5

$$$$
