162648846
  -OEChem-09292322462D

 47 50  0     1  0  0  0  0  0999 V2000
    3.0814    2.3063    0.0000 N   0  0  3  0  0  0  0  0  0  0  0  0
    5.3830   -0.3966    0.0000 N   0  0  0  0  0  0  0  0  0  0  0  0
    4.8830   -2.5873    0.0000 N   0  0  0  0  0  0  0  0  0  0  0  0
    4.0786    2.2316    0.0000 C   0  0  2  0  0  0  0  0  0  0  0  0
    2.5180    1.4801    0.0000 C   0  0  0  0  0  0  0  0  0  0  0  0
    2.9519    0.5791    0.0000 C   0  0  0  0  0  0  0  0  0  0  0  0
    3.9491    0.5044    0.0000 C   0  0  0  0  0  0  0  0  0  0  0  0
    4.5125    1.3306    0.0000 C   0  0  0  0  0  0  0  0  0  0  0  0
    4.3830   -0.3966    0.0000 C   0  0  0  0  0  0  0  0  0  0  0  0
    4.6419    3.0578    0.0000 C   0  0  0  0  0  0  0  0  0  0  0  0
    2.6475    3.2073    0.0000 C   0  0  0  0  0  0  0  0  0  0  0  0
    3.7595   -1.1784    0.0000 C   0  0  0  0  0  0  0  0  0  0  0  0
    3.9820   -2.1534    0.0000 C   0  0  0  0  0  0  0  0  0  0  0  0
    6.0065   -1.1785    0.0000 C   0  0  0  0  0  0  0  0  0  0  0  0
    5.7840   -2.1534    0.0000 C   0  0  0  0  0  0  0  0  0  0  0  0
    2.7690   -0.8561    0.0000 C   0  0  0  0  0  0  0  0  0  0  0  0
    3.2295   -2.8736    0.0000 C   0  0  0  0  0  0  0  0  0  0  0  0
    6.9970   -0.8561    0.0000 C   0  0  0  0  0  0  0  0  0  0  0  0
    6.5365   -2.8736    0.0000 C   0  0  0  0  0  0  0  0  0  0  0  0
    2.0000   -1.5587    0.0000 C   0  0  0  0  0  0  0  0  0  0  0  0
    7.7660   -1.5587    0.0000 C   0  0  0  0  0  0  0  0  0  0  0  0
    2.2318   -2.5742    0.0000 C   0  0  0  0  0  0  0  0  0  0  0  0
    7.5342   -2.5742    0.0000 C   0  0  0  0  0  0  0  0  0  0  0  0
    8.7204   -1.2603    0.0000 C   0  0  0  0  0  0  0  0  0  0  0  0
    3.8096    2.7902    0.0000 H   0  0  0  0  0  0  0  0  0  0  0  0
    2.0742    1.9130    0.0000 H   0  0  0  0  0  0  0  0  0  0  0  0
    2.0146    1.1181    0.0000 H   0  0  0  0  0  0  0  0  0  0  0  0
    2.3551    0.4112    0.0000 H   0  0  0  0  0  0  0  0  0  0  0  0
    3.0137   -0.0378    0.0000 H   0  0  0  0  0  0  0  0  0  0  0  0
    5.1307    1.2842    0.0000 H   0  0  0  0  0  0  0  0  0  0  0  0
    5.1542    2.7085    0.0000 H   0  0  0  0  0  0  0  0  0  0  0  0
    4.9912    3.5701    0.0000 H   0  0  0  0  0  0  0  0  0  0  0  0
    4.1296    3.4070    0.0000 H   0  0  0  0  0  0  0  0  0  0  0  0
    3.2061    3.4763    0.0000 H   0  0  0  0  0  0  0  0  0  0  0  0
    2.3785    3.7659    0.0000 H   0  0  0  0  0  0  0  0  0  0  0  0
    2.0889    2.9383    0.0000 H   0  0  0  0  0  0  0  0  0  0  0  0
    4.8830   -3.2073    0.0000 H   0  0  0  0  0  0  0  0  0  0  0  0
    2.6380   -0.2501    0.0000 H   0  0  0  0  0  0  0  0  0  0  0  0
    3.3744   -3.4764    0.0000 H   0  0  0  0  0  0  0  0  0  0  0  0
    7.1280   -0.2501    0.0000 H   0  0  0  0  0  0  0  0  0  0  0  0
    6.3916   -3.4764    0.0000 H   0  0  0  0  0  0  0  0  0  0  0  0
    1.4083   -1.3736    0.0000 H   0  0  0  0  0  0  0  0  0  0  0  0
    1.7789   -2.9976    0.0000 H   0  0  0  0  0  0  0  0  0  0  0  0
    7.9871   -2.9977    0.0000 H   0  0  0  0  0  0  0  0  0  0  0  0
    8.9055   -1.8520    0.0000 H   0  0  0  0  0  0  0  0  0  0  0  0
    9.3122   -1.0753    0.0000 H   0  0  0  0  0  0  0  0  0  0  0  0
    8.5354   -0.6685    0.0000 H   0  0  0  0  0  0  0  0  0  0  0  0
  1  4  1  0  0  0  0
  1  5  1  0  0  0  0
  1 11  1  0  0  0  0
  2  9  2  0  0  0  0
  2 14  1  0  0  0  0
  3 13  1  0  0  0  0
  3 15  1  0  0  0  0
  3 37  1  0  0  0  0
  4  8  1  0  0  0  0
  4 10  1  1  0  0  0
  4 25  1  0  0  0  0
  5  6  1  0  0  0  0
  5 26  1  0  0  0  0
  5 27  1  0  0  0  0
  6  7  1  0  0  0  0
  6 28  1  0  0  0  0
  6 29  1  0  0  0  0
  7  8  2  0  0  0  0
  7  9  1  0  0  0  0
  8 30  1  0  0  0  0
  9 12  1  0  0  0  0
 10 31  1  0  0  0  0
 10 32  1  0  0  0  0
 10 33  1  0  0  0  0
 11 34  1  0  0  0  0
 11 35  1  0  0  0  0
 11 36  1  0  0  0  0
 12 13  1  0  0  0  0
 12 16  2  0  0  0  0
 13 17  2  0  0  0  0
 14 15  2  0  0  0  0
 14 18  1  0  0  0  0
 15 19  1  0  0  0  0
 16 20  1  0  0  0  0
 16 38  1  0  0  0  0
 17 22  1  0  0  0  0
 17 39  1  0  0  0  0
 18 21  2  0  0  0  0
 18 40  1  0  0  0  0
 19 23  2  0  0  0  0
 19 41  1  0  0  0  0
 20 22  2  0  0  0  0
 20 42  1  0  0  0  0
 21 23  1  0  0  0  0
 21 24  1  0  0  0  0
 22 43  1  0  0  0  0
 23 44  1  0  0  0  0
 24 45  1  0  0  0  0
 24 46  1  0  0  0  0
 24 47  1  0  0  0  0
M  END
> <PUBCHEM_COMPOUND_CID>
162648846

> <PUBCHEM_COMPOUND_CANONICALIZED>
1

> <PUBCHEM_CACTVS_COMPLEXITY>
523

> <PUBCHEM_CACTVS_HBOND_ACCEPTOR>
3

> <PUBCHEM_CACTVS_HBOND_DONOR>
1

> <PUBCHEM_CACTVS_ROTATABLE_BOND>
1

> <PUBCHEM_CACTVS_SUBSKEYS>
AAADceB7AAAAAAAAAAAAAAAAAAAAAAAAAAAwYIAABAAAAAABQAAAHAAQAAAADCjBGAQywIPAAACgAyRiRACCAAAhAgAIiAAodJgIYOLAkZGUIAhgkADIyAcQgIAOCAAAQAACACAQAACAAAQAQAAAAAAAAA==

> <PUBCHEM_IUPAC_OPENEYE_NAME>
6-[(6S)-1,6-dimethyl-3,6-dihydro-2H-pyridin-4-yl]-3-methyl-11H-benzo[b][1,4]benzodiazepine

> <PUBCHEM_IUPAC_CAS_NAME>
6-[(6S)-1,6-dimethyl-3,6-dihydro-2H-pyridin-4-yl]-3-methyl-11H-benzo[b][1,4]benzodiazepine

> <PUBCHEM_IUPAC_NAME_MARKUP>
6-[(6<I>S</I>)-1,6-dimethyl-3,6-dihydro-2<I>H</I>-pyridin-4-yl]-3-methyl-11<I>H</I>-benzo[b][1,4]benzodiazepine

> <PUBCHEM_IUPAC_NAME>
6-[(6S)-1,6-dimethyl-3,6-dihydro-2H-pyridin-4-yl]-3-methyl-11H-benzo[b][1,4]benzodiazepine

> <PUBCHEM_IUPAC_SYSTEMATIC_NAME>
6-[(6S)-1,6-dimethyl-3,6-dihydro-2H-pyridin-4-yl]-3-methyl-11H-benzo[b][1,4]benzodiazepine

> <PUBCHEM_IUPAC_TRADITIONAL_NAME>
6-[(6S)-1,6-dimethyl-3,6-dihydro-2H-pyridin-4-yl]-3-methyl-11H-benzo[b][1,4]benzodiazepine

> <PUBCHEM_IUPAC_INCHI>
InChI=1S/C21H23N3/c1-14-8-9-19-20(12-14)23-21(16-10-11-24(3)15(2)13-16)17-6-4-5-7-18(17)22-19/h4-9,12-13,15,22H,10-11H2,1-3H3/t15-/m0/s1

> <PUBCHEM_IUPAC_INCHIKEY>
ZRZMNVWIHMGKGS-HNNXBMFYSA-N

> <PUBCHEM_XLOGP3_AA>
4.1

> <PUBCHEM_EXACT_MASS>
317.189197746

> <PUBCHEM_MOLECULAR_FORMULA>
C21H23N3

> <PUBCHEM_MOLECULAR_WEIGHT>
317.4

> <PUBCHEM_OPENEYE_CAN_SMILES>
CC1C=C(CCN1C)C2=NC3=C(C=CC(=C3)C)NC4=CC=CC=C42

> <PUBCHEM_OPENEYE_ISO_SMILES>
C[C@H]1C=C(CCN1C)C2=NC3=C(C=CC(=C3)C)NC4=CC=CC=C42

> <PUBCHEM_CACTVS_TPSA>
27.6

> <PUBCHEM_MONOISOTOPIC_WEIGHT>
317.189197746

> <PUBCHEM_TOTAL_CHARGE>
0

> <PUBCHEM_HEAVY_ATOM_COUNT>
24

> <PUBCHEM_ATOM_DEF_STEREO_COUNT>
1

> <PUBCHEM_ATOM_UDEF_STEREO_COUNT>
0

> <PUBCHEM_BOND_DEF_STEREO_COUNT>
0

> <PUBCHEM_BOND_UDEF_STEREO_COUNT>
0

> <PUBCHEM_ISOTOPIC_ATOM_COUNT>
0

> <PUBCHEM_COMPONENT_COUNT>
1

> <PUBCHEM_CACTVS_TAUTO_COUNT>
-1

> <PUBCHEM_COORDINATE_TYPE>
1
5
255

> <PUBCHEM_BONDANNOTATIONS>
12  13  8
12  16  8
13  17  8
14  15  8
14  18  8
15  19  8
16  20  8
17  22  8
18  21  8
19  23  8
20  22  8
21  23  8
4  10  5

$$$$
