44415367
  -OEChem-09292322282D

 55 58  0     0  0  0  0  0  0999 V2000
    8.7204    0.4297    0.0000 Cl  0  0  0  0  0  0  0  0  0  0  0  0
    6.6150   -1.8973    0.0000 O   0  0  0  0  0  0  0  0  0  0  0  0
    3.9491    2.1944    0.0000 N   0  0  0  0  0  0  0  0  0  0  0  0
    3.0814    3.9963    0.0000 N   0  0  0  0  0  0  0  0  0  0  0  0
    4.8830   -0.8973    0.0000 N   0  0  0  0  0  0  0  0  0  0  0  0
    5.3830    1.2934    0.0000 N   0  0  0  0  0  0  0  0  0  0  0  0
    4.8830   -1.8973    0.0000 N   0  0  0  0  0  0  0  0  0  0  0  0
    4.5125    3.0206    0.0000 C   0  0  0  0  0  0  0  0  0  0  0  0
    2.9519    2.2691    0.0000 C   0  0  0  0  0  0  0  0  0  0  0  0
    4.0786    3.9216    0.0000 C   0  0  0  0  0  0  0  0  0  0  0  0
    2.5180    3.1701    0.0000 C   0  0  0  0  0  0  0  0  0  0  0  0
    4.3830    1.2934    0.0000 C   0  0  0  0  0  0  0  0  0  0  0  0
    3.7595    0.5116    0.0000 C   0  0  0  0  0  0  0  0  0  0  0  0
    2.6475    4.8973    0.0000 C   0  0  0  0  0  0  0  0  0  0  0  0
    3.9820   -0.4634    0.0000 C   0  0  0  0  0  0  0  0  0  0  0  0
    5.7840   -0.4634    0.0000 C   0  0  0  0  0  0  0  0  0  0  0  0
    6.0065    0.5115    0.0000 C   0  0  0  0  0  0  0  0  0  0  0  0
    2.7690    0.8339    0.0000 C   0  0  0  0  0  0  0  0  0  0  0  0
    3.2295   -1.1835    0.0000 C   0  0  0  0  0  0  0  0  0  0  0  0
    2.0000    0.1313    0.0000 C   0  0  0  0  0  0  0  0  0  0  0  0
    6.5365   -1.1836    0.0000 C   0  0  0  0  0  0  0  0  0  0  0  0
    6.9970    0.8339    0.0000 C   0  0  0  0  0  0  0  0  0  0  0  0
    2.2318   -0.8842    0.0000 C   0  0  0  0  0  0  0  0  0  0  0  0
    5.7490   -2.3973    0.0000 C   0  0  0  0  0  0  0  0  0  0  0  0
    7.5342   -0.8842    0.0000 C   0  0  0  0  0  0  0  0  0  0  0  0
    7.7660    0.1313    0.0000 C   0  0  0  0  0  0  0  0  0  0  0  0
    5.7490   -3.3973    0.0000 C   0  0  0  0  0  0  0  0  0  0  0  0
    6.6150   -3.8973    0.0000 C   0  0  0  0  0  0  0  0  0  0  0  0
    6.6150   -4.8973    0.0000 C   0  0  0  0  0  0  0  0  0  0  0  0
    4.9563    2.5877    0.0000 H   0  0  0  0  0  0  0  0  0  0  0  0
    5.0159    3.3825    0.0000 H   0  0  0  0  0  0  0  0  0  0  0  0
    2.3551    2.1012    0.0000 H   0  0  0  0  0  0  0  0  0  0  0  0
    3.0137    1.6522    0.0000 H   0  0  0  0  0  0  0  0  0  0  0  0
    4.6754    4.0895    0.0000 H   0  0  0  0  0  0  0  0  0  0  0  0
    4.0168    4.5385    0.0000 H   0  0  0  0  0  0  0  0  0  0  0  0
    2.0742    3.6030    0.0000 H   0  0  0  0  0  0  0  0  0  0  0  0
    2.0146    2.8082    0.0000 H   0  0  0  0  0  0  0  0  0  0  0  0
    3.2061    5.1663    0.0000 H   0  0  0  0  0  0  0  0  0  0  0  0
    2.3785    5.4559    0.0000 H   0  0  0  0  0  0  0  0  0  0  0  0
    2.0889    4.6283    0.0000 H   0  0  0  0  0  0  0  0  0  0  0  0
    2.6380    1.4399    0.0000 H   0  0  0  0  0  0  0  0  0  0  0  0
    3.3744   -1.7864    0.0000 H   0  0  0  0  0  0  0  0  0  0  0  0
    4.3460   -2.2073    0.0000 H   0  0  0  0  0  0  0  0  0  0  0  0
    1.4083    0.3164    0.0000 H   0  0  0  0  0  0  0  0  0  0  0  0
    6.3916   -1.7864    0.0000 H   0  0  0  0  0  0  0  0  0  0  0  0
    7.1280    1.4399    0.0000 H   0  0  0  0  0  0  0  0  0  0  0  0
    1.7789   -1.3076    0.0000 H   0  0  0  0  0  0  0  0  0  0  0  0
    7.9871   -1.3077    0.0000 H   0  0  0  0  0  0  0  0  0  0  0  0
    5.1384   -3.2896    0.0000 H   0  0  0  0  0  0  0  0  0  0  0  0
    5.5369   -3.9799    0.0000 H   0  0  0  0  0  0  0  0  0  0  0  0
    7.2256   -4.0049    0.0000 H   0  0  0  0  0  0  0  0  0  0  0  0
    6.8271   -3.3147    0.0000 H   0  0  0  0  0  0  0  0  0  0  0  0
    5.9950   -4.8973    0.0000 H   0  0  0  0  0  0  0  0  0  0  0  0
    6.6150   -5.5173    0.0000 H   0  0  0  0  0  0  0  0  0  0  0  0
    7.2350   -4.8973    0.0000 H   0  0  0  0  0  0  0  0  0  0  0  0
  1 26  1  0  0  0  0
  2 24  2  0  0  0  0
  3  8  1  0  0  0  0
  3  9  1  0  0  0  0
  3 12  1  0  0  0  0
  4 10  1  0  0  0  0
  4 11  1  0  0  0  0
  4 14  1  0  0  0  0
  5  7  1  0  0  0  0
  5 15  1  0  0  0  0
  5 16  1  0  0  0  0
  6 12  2  0  0  0  0
  6 17  1  0  0  0  0
  7 24  1  0  0  0  0
  7 43  1  0  0  0  0
  8 10  1  0  0  0  0
  8 30  1  0  0  0  0
  8 31  1  0  0  0  0
  9 11  1  0  0  0  0
  9 32  1  0  0  0  0
  9 33  1  0  0  0  0
 10 34  1  0  0  0  0
 10 35  1  0  0  0  0
 11 36  1  0  0  0  0
 11 37  1  0  0  0  0
 12 13  1  0  0  0  0
 13 15  1  0  0  0  0
 13 18  2  0  0  0  0
 14 38  1  0  0  0  0
 14 39  1  0  0  0  0
 14 40  1  0  0  0  0
 15 19  2  0  0  0  0
 16 17  2  0  0  0  0
 16 21  1  0  0  0  0
 17 22  1  0  0  0  0
 18 20  1  0  0  0  0
 18 41  1  0  0  0  0
 19 23  1  0  0  0  0
 19 42  1  0  0  0  0
 20 23  2  0  0  0  0
 20 44  1  0  0  0  0
 21 25  2  0  0  0  0
 21 45  1  0  0  0  0
 22 26  2  0  0  0  0
 22 46  1  0  0  0  0
 23 47  1  0  0  0  0
 24 27  1  0  0  0  0
 25 26  1  0  0  0  0
 25 48  1  0  0  0  0
 27 28  1  0  0  0  0
 27 49  1  0  0  0  0
 27 50  1  0  0  0  0
 28 29  1  0  0  0  0
 28 51  1  0  0  0  0
 28 52  1  0  0  0  0
 29 53  1  0  0  0  0
 29 54  1  0  0  0  0
 29 55  1  0  0  0  0
M  END
> <PUBCHEM_COMPOUND_CID>
44415367

> <PUBCHEM_COMPOUND_CANONICALIZED>
1

> <PUBCHEM_CACTVS_COMPLEXITY>
606

> <PUBCHEM_CACTVS_HBOND_ACCEPTOR>
4

> <PUBCHEM_CACTVS_HBOND_DONOR>
1

> <PUBCHEM_CACTVS_ROTATABLE_BOND>
4

> <PUBCHEM_CACTVS_SUBSKEYS>
AAADceB7oAAEAAAAAAAAAAAAAAAAAAAAAAA8YIAABAAAAAABQAAAHgIYAAAADArBmCQzwINiAACoAidydACCBAEhBwAbqAEodpgIYPLB25GUIAhgkADIyAcQgAAOAABAAAICACAAAIAABAQAQAAAAAAAAA==

> <PUBCHEM_IUPAC_OPENEYE_NAME>
N-[3-chloro-6-(4-methylpiperazin-1-yl)benzo[b][1,4]benzodiazepin-11-yl]butanamide

> <PUBCHEM_IUPAC_CAS_NAME>
N-[3-chloro-6-(4-methyl-1-piperazinyl)-11-benzo[b][1,4]benzodiazepinyl]butanamide

> <PUBCHEM_IUPAC_NAME_MARKUP>
<I>N</I>-[3-chloro-6-(4-methylpiperazin-1-yl)benzo[b][1,4]benzodiazepin-11-yl]butanamide

> <PUBCHEM_IUPAC_NAME>
N-[3-chloro-6-(4-methylpiperazin-1-yl)benzo[b][1,4]benzodiazepin-11-yl]butanamide

> <PUBCHEM_IUPAC_SYSTEMATIC_NAME>
N-[3-chloranyl-6-(4-methylpiperazin-1-yl)benzo[b][1,4]benzodiazepin-11-yl]butanamide

> <PUBCHEM_IUPAC_TRADITIONAL_NAME>
N-[3-chloro-6-(4-methylpiperazino)benzo[b][1,4]benzodiazepin-11-yl]butyramide

> <PUBCHEM_IUPAC_INCHI>
InChI=1S/C22H26ClN5O/c1-3-6-21(29)25-28-19-8-5-4-7-17(19)22(27-13-11-26(2)12-14-27)24-18-15-16(23)9-10-20(18)28/h4-5,7-10,15H,3,6,11-14H2,1-2H3,(H,25,29)

> <PUBCHEM_IUPAC_INCHIKEY>
NHLNXRIZUSPOSP-UHFFFAOYSA-N

> <PUBCHEM_XLOGP3_AA>
3.6

> <PUBCHEM_EXACT_MASS>
411.1825882

> <PUBCHEM_MOLECULAR_FORMULA>
C22H26ClN5O

> <PUBCHEM_MOLECULAR_WEIGHT>
411.9

> <PUBCHEM_OPENEYE_CAN_SMILES>
CCCC(=O)NN1C2=C(C=C(C=C2)Cl)N=C(C3=CC=CC=C31)N4CCN(CC4)C

> <PUBCHEM_OPENEYE_ISO_SMILES>
CCCC(=O)NN1C2=C(C=C(C=C2)Cl)N=C(C3=CC=CC=C31)N4CCN(CC4)C

> <PUBCHEM_CACTVS_TPSA>
51.2

> <PUBCHEM_MONOISOTOPIC_WEIGHT>
411.1825882

> <PUBCHEM_TOTAL_CHARGE>
0

> <PUBCHEM_HEAVY_ATOM_COUNT>
29

> <PUBCHEM_ATOM_DEF_STEREO_COUNT>
0

> <PUBCHEM_ATOM_UDEF_STEREO_COUNT>
0

> <PUBCHEM_BOND_DEF_STEREO_COUNT>
0

> <PUBCHEM_BOND_UDEF_STEREO_COUNT>
0

> <PUBCHEM_ISOTOPIC_ATOM_COUNT>
0

> <PUBCHEM_COMPONENT_COUNT>
1

> <PUBCHEM_CACTVS_TAUTO_COUNT>
-1

> <PUBCHEM_COORDINATE_TYPE>
1
5
255

> <PUBCHEM_BONDANNOTATIONS>
13  15  8
13  18  8
15  19  8
16  17  8
16  21  8
17  22  8
18  20  8
19  23  8
20  23  8
21  25  8
22  26  8
25  26  8

$$$$
