4466165
  -OEChem-09292322092D

 52 54  0     0  0  0  0  0  0999 V2000
    9.1962    5.7320    0.0000 Cl  0  0  0  0  0  0  0  0  0  0  0  0
    2.0000   -5.7320    0.0000 F   0  0  0  0  0  0  0  0  0  0  0  0
    6.6962    3.1340    0.0000 O   0  0  0  0  0  0  0  0  0  0  0  0
    6.3301   -4.2320    0.0000 O   0  0  0  0  0  0  0  0  0  0  0  0
    7.1962    0.2679    0.0000 N   0  0  0  0  0  0  0  0  0  0  0  0
    7.1962    2.2680    0.0000 C   0  0  0  0  0  0  0  0  0  0  0  0
    6.3301    1.7680    0.0000 C   0  0  0  0  0  0  0  0  0  0  0  0
    8.0622    1.7680    0.0000 C   0  0  0  0  0  0  0  0  0  0  0  0
    6.3301    0.7679    0.0000 C   0  0  0  0  0  0  0  0  0  0  0  0
    8.0622    0.7679    0.0000 C   0  0  0  0  0  0  0  0  0  0  0  0
    7.1962   -0.7321    0.0000 C   0  0  0  0  0  0  0  0  0  0  0  0
    7.6962    3.1340    0.0000 C   0  0  0  0  0  0  0  0  0  0  0  0
    6.3301   -1.2320    0.0000 C   0  0  0  0  0  0  0  0  0  0  0  0
    6.3301   -2.2320    0.0000 C   0  0  0  0  0  0  0  0  0  0  0  0
    8.6962    3.1340    0.0000 C   0  0  0  0  0  0  0  0  0  0  0  0
    7.1962    4.0000    0.0000 C   0  0  0  0  0  0  0  0  0  0  0  0
    5.4641   -2.7320    0.0000 C   0  0  0  0  0  0  0  0  0  0  0  0
    9.1962    4.0000    0.0000 C   0  0  0  0  0  0  0  0  0  0  0  0
    7.6962    4.8660    0.0000 C   0  0  0  0  0  0  0  0  0  0  0  0
    8.6962    4.8660    0.0000 C   0  0  0  0  0  0  0  0  0  0  0  0
    5.4641   -3.7320    0.0000 C   0  0  0  0  0  0  0  0  0  0  0  0
    4.5981   -4.2320    0.0000 C   0  0  0  0  0  0  0  0  0  0  0  0
    4.5981   -5.2320    0.0000 C   0  0  0  0  0  0  0  0  0  0  0  0
    3.7320   -3.7320    0.0000 C   0  0  0  0  0  0  0  0  0  0  0  0
    3.7320   -5.7320    0.0000 C   0  0  0  0  0  0  0  0  0  0  0  0
    2.8660   -4.2320    0.0000 C   0  0  0  0  0  0  0  0  0  0  0  0
    2.8660   -5.2320    0.0000 C   0  0  0  0  0  0  0  0  0  0  0  0
    6.1181    2.3506    0.0000 H   0  0  0  0  0  0  0  0  0  0  0  0
    5.7196    1.6603    0.0000 H   0  0  0  0  0  0  0  0  0  0  0  0
    8.6728    1.6603    0.0000 H   0  0  0  0  0  0  0  0  0  0  0  0
    8.2742    2.3506    0.0000 H   0  0  0  0  0  0  0  0  0  0  0  0
    5.7196    0.8756    0.0000 H   0  0  0  0  0  0  0  0  0  0  0  0
    6.1181    0.1853    0.0000 H   0  0  0  0  0  0  0  0  0  0  0  0
    8.2742    0.1853    0.0000 H   0  0  0  0  0  0  0  0  0  0  0  0
    8.6728    0.8756    0.0000 H   0  0  0  0  0  0  0  0  0  0  0  0
    7.4082   -1.3147    0.0000 H   0  0  0  0  0  0  0  0  0  0  0  0
    7.8067   -0.6244    0.0000 H   0  0  0  0  0  0  0  0  0  0  0  0
    6.1181   -0.6494    0.0000 H   0  0  0  0  0  0  0  0  0  0  0  0
    5.7196   -1.3397    0.0000 H   0  0  0  0  0  0  0  0  0  0  0  0
    6.0762    3.1340    0.0000 H   0  0  0  0  0  0  0  0  0  0  0  0
    6.5422   -2.8147    0.0000 H   0  0  0  0  0  0  0  0  0  0  0  0
    6.9407   -2.1244    0.0000 H   0  0  0  0  0  0  0  0  0  0  0  0
    9.0062    2.5970    0.0000 H   0  0  0  0  0  0  0  0  0  0  0  0
    6.5762    4.0000    0.0000 H   0  0  0  0  0  0  0  0  0  0  0  0
    5.2520   -2.1494    0.0000 H   0  0  0  0  0  0  0  0  0  0  0  0
    4.8535   -2.8397    0.0000 H   0  0  0  0  0  0  0  0  0  0  0  0
    9.8162    4.0000    0.0000 H   0  0  0  0  0  0  0  0  0  0  0  0
    7.3862    5.4030    0.0000 H   0  0  0  0  0  0  0  0  0  0  0  0
    5.1350   -5.5420    0.0000 H   0  0  0  0  0  0  0  0  0  0  0  0
    3.7320   -3.1120    0.0000 H   0  0  0  0  0  0  0  0  0  0  0  0
    3.7320   -6.3520    0.0000 H   0  0  0  0  0  0  0  0  0  0  0  0
    2.3291   -3.9220    0.0000 H   0  0  0  0  0  0  0  0  0  0  0  0
  1 20  1  0  0  0  0
  2 27  1  0  0  0  0
  3  6  1  0  0  0  0
  3 40  1  0  0  0  0
  4 21  2  0  0  0  0
  5  9  1  0  0  0  0
  5 10  1  0  0  0  0
  5 11  1  0  0  0  0
  6  7  1  0  0  0  0
  6  8  1  0  0  0  0
  6 12  1  0  0  0  0
  7  9  1  0  0  0  0
  7 28  1  0  0  0  0
  7 29  1  0  0  0  0
  8 10  1  0  0  0  0
  8 30  1  0  0  0  0
  8 31  1  0  0  0  0
  9 32  1  0  0  0  0
  9 33  1  0  0  0  0
 10 34  1  0  0  0  0
 10 35  1  0  0  0  0
 11 13  1  0  0  0  0
 11 36  1  0  0  0  0
 11 37  1  0  0  0  0
 12 15  2  0  0  0  0
 12 16  1  0  0  0  0
 13 14  1  0  0  0  0
 13 38  1  0  0  0  0
 13 39  1  0  0  0  0
 14 17  1  0  0  0  0
 14 41  1  0  0  0  0
 14 42  1  0  0  0  0
 15 18  1  0  0  0  0
 15 43  1  0  0  0  0
 16 19  2  0  0  0  0
 16 44  1  0  0  0  0
 17 21  1  0  0  0  0
 17 45  1  0  0  0  0
 17 46  1  0  0  0  0
 18 20  2  0  0  0  0
 18 47  1  0  0  0  0
 19 20  1  0  0  0  0
 19 48  1  0  0  0  0
 21 22  1  0  0  0  0
 22 23  2  0  0  0  0
 22 24  1  0  0  0  0
 23 25  1  0  0  0  0
 23 49  1  0  0  0  0
 24 26  2  0  0  0  0
 24 50  1  0  0  0  0
 25 27  2  0  0  0  0
 25 51  1  0  0  0  0
 26 27  1  0  0  0  0
 26 52  1  0  0  0  0
M  END
> <PUBCHEM_COMPOUND_CID>
4466165

> <PUBCHEM_COMPOUND_CANONICALIZED>
1

> <PUBCHEM_CACTVS_COMPLEXITY>
465

> <PUBCHEM_CACTVS_HBOND_ACCEPTOR>
4

> <PUBCHEM_CACTVS_HBOND_DONOR>
1

> <PUBCHEM_CACTVS_ROTATABLE_BOND>
7

> <PUBCHEM_CACTVS_SUBSKEYS>
AAADceB6MQAEAAAAAAAAAAAAAAAAAAAAAAA8YIAAAAAAAAABQAAAHwIACAAADEbBmCwwAIMAAgCIAqBSAAACAAAkBQAIiAEICsgIJjKBlxCEcQAmwAGImYeYyeCOhAAAAAAAAAAIAAAAAAAAAAAAAAAAAA==

> <PUBCHEM_IUPAC_OPENEYE_NAME>
5-[4-(4-chlorophenyl)-4-hydroxy-1-piperidyl]-1-(4-fluorophenyl)pentan-1-one

> <PUBCHEM_IUPAC_CAS_NAME>
5-[4-(4-chlorophenyl)-4-hydroxy-1-piperidinyl]-1-(4-fluorophenyl)-1-pentanone

> <PUBCHEM_IUPAC_NAME_MARKUP>
5-[4-(4-chlorophenyl)-4-hydroxypiperidin-1-yl]-1-(4-fluorophenyl)pentan-1-one

> <PUBCHEM_IUPAC_NAME>
5-[4-(4-chlorophenyl)-4-hydroxypiperidin-1-yl]-1-(4-fluorophenyl)pentan-1-one

> <PUBCHEM_IUPAC_SYSTEMATIC_NAME>
5-[4-(4-chlorophenyl)-4-oxidanyl-piperidin-1-yl]-1-(4-fluorophenyl)pentan-1-one

> <PUBCHEM_IUPAC_TRADITIONAL_NAME>
5-[4-(4-chlorophenyl)-4-hydroxy-piperidino]-1-(4-fluorophenyl)pentan-1-one

> <PUBCHEM_IUPAC_INCHI>
InChI=1S/C22H25ClFNO2/c23-19-8-6-18(7-9-19)22(27)12-15-25(16-13-22)14-2-1-3-21(26)17-4-10-20(24)11-5-17/h4-11,27H,1-3,12-16H2

> <PUBCHEM_IUPAC_INCHIKEY>
ZZHAINUKVRVYIQ-UHFFFAOYSA-N

> <PUBCHEM_XLOGP3>
3.6

> <PUBCHEM_EXACT_MASS>
389.1557849

> <PUBCHEM_MOLECULAR_FORMULA>
C22H25ClFNO2

> <PUBCHEM_MOLECULAR_WEIGHT>
389.9

> <PUBCHEM_OPENEYE_CAN_SMILES>
C1CN(CCC1(C2=CC=C(C=C2)Cl)O)CCCCC(=O)C3=CC=C(C=C3)F

> <PUBCHEM_OPENEYE_ISO_SMILES>
C1CN(CCC1(C2=CC=C(C=C2)Cl)O)CCCCC(=O)C3=CC=C(C=C3)F

> <PUBCHEM_CACTVS_TPSA>
40.5

> <PUBCHEM_MONOISOTOPIC_WEIGHT>
389.1557849

> <PUBCHEM_TOTAL_CHARGE>
0

> <PUBCHEM_HEAVY_ATOM_COUNT>
27

> <PUBCHEM_ATOM_DEF_STEREO_COUNT>
0

> <PUBCHEM_ATOM_UDEF_STEREO_COUNT>
0

> <PUBCHEM_BOND_DEF_STEREO_COUNT>
0

> <PUBCHEM_BOND_UDEF_STEREO_COUNT>
0

> <PUBCHEM_ISOTOPIC_ATOM_COUNT>
0

> <PUBCHEM_COMPONENT_COUNT>
1

> <PUBCHEM_CACTVS_TAUTO_COUNT>
-1

> <PUBCHEM_COORDINATE_TYPE>
1
5
255

> <PUBCHEM_BONDANNOTATIONS>
12  15  8
12  16  8
15  18  8
16  19  8
18  20  8
19  20  8
22  23  8
22  24  8
23  25  8
24  26  8
25  27  8
26  27  8

$$$$
