45262416
  -OEChem-09292322122D

 77 80  0     1  0  0  0  0  0999 V2000
    8.0117    0.0000    0.0000 Cl  0  0  0  0  0  0  0  0  0  0  0  0
   15.6236   10.1944    0.0000 S   0  0  0  0  0  0  0  0  0  0  0  0
    5.2688    6.5722    0.0000 O   0  0  0  0  0  0  0  0  0  0  0  0
   16.1269    9.3303    0.0000 O   0  0  0  0  0  0  0  0  0  0  0  0
   15.1202   11.0585    0.0000 O   0  0  0  0  0  0  0  0  0  0  0  0
    2.1756    4.7926    0.0000 O   0  0  0  0  0  0  0  0  0  0  0  0
   10.7688    9.1703    0.0000 N   0  0  3  0  0  0  0  0  0  0  0  0
    5.2688    8.3043    0.0000 N   0  0  0  0  0  0  0  0  0  0  0  0
    0.7743    5.6017    0.0000 N   0  0  0  0  0  0  0  0  0  0  0  0
    8.2688    8.3043    0.0000 C   0  0  0  0  0  0  0  0  0  0  0  0
    7.7688    7.4382    0.0000 C   0  0  0  0  0  0  0  0  0  0  0  0
    7.7688    9.1703    0.0000 C   0  0  0  0  0  0  0  0  0  0  0  0
    6.2688    8.3043    0.0000 C   0  0  0  0  0  0  0  0  0  0  0  0
    6.7688    7.4382    0.0000 C   0  0  0  0  0  0  0  0  0  0  0  0
    6.7688    9.1703    0.0000 C   0  0  0  0  0  0  0  0  0  0  0  0
    9.2688    8.3043    0.0000 C   0  0  0  0  0  0  0  0  0  0  0  0
    9.7688    9.1703    0.0000 C   0  0  0  0  0  0  0  0  0  0  0  0
   11.2027   10.0713    0.0000 C   0  0  0  0  0  0  0  0  0  0  0  0
   11.2027    8.2693    0.0000 C   0  0  0  0  0  0  0  0  0  0  0  0
   12.1776   10.2938    0.0000 C   0  0  0  0  0  0  0  0  0  0  0  0
   12.1776    8.0468    0.0000 C   0  0  0  0  0  0  0  0  0  0  0  0
   12.9595    9.6703    0.0000 C   0  0  0  0  0  0  0  0  0  0  0  0
   12.9595    8.6703    0.0000 C   0  0  0  0  0  0  0  0  0  0  0  0
    4.7688    7.4382    0.0000 C   0  0  0  0  0  0  0  0  0  0  0  0
   13.8534   10.2050    0.0000 C   0  0  0  0  0  0  0  0  0  0  0  0
   13.8534    8.1356    0.0000 C   0  0  0  0  0  0  0  0  0  0  0  0
    3.7688    7.4382    0.0000 C   0  0  0  0  0  0  0  0  0  0  0  0
   14.7595    9.6911    0.0000 C   0  0  0  0  0  0  0  0  0  0  0  0
   14.7595    8.6495    0.0000 C   0  0  0  0  0  0  0  0  0  0  0  0
    3.2688    6.5722    0.0000 C   0  0  0  0  0  0  0  0  0  0  0  0
    3.2688    8.3043    0.0000 C   0  0  0  0  0  0  0  0  0  0  0  0
   16.4877   10.6978    0.0000 C   0  0  0  0  0  0  0  0  0  0  0  0
    2.2688    6.5722    0.0000 C   0  0  0  0  0  0  0  0  0  0  0  0
    2.2688    8.3043    0.0000 C   0  0  0  0  0  0  0  0  0  0  0  0
    1.7688    7.4382    0.0000 C   0  0  0  0  0  0  0  0  0  0  0  0
    1.7688    5.7062    0.0000 C   0  0  0  0  0  0  0  0  0  0  0  0
    1.4324    4.1235    0.0000 C   0  0  0  0  0  0  0  0  0  0  0  0
    0.5664    4.6235    0.0000 C   0  0  0  0  0  0  0  0  0  0  0  0
    1.5370    3.1290    0.0000 C   0  0  0  0  0  0  0  0  0  0  0  0
    8.5788    7.7673    0.0000 H   0  0  0  0  0  0  0  0  0  0  0  0
    7.6612    6.8277    0.0000 H   0  0  0  0  0  0  0  0  0  0  0  0
    8.3514    7.2262    0.0000 H   0  0  0  0  0  0  0  0  0  0  0  0
    8.3514    9.3824    0.0000 H   0  0  0  0  0  0  0  0  0  0  0  0
    7.6612    9.7809    0.0000 H   0  0  0  0  0  0  0  0  0  0  0  0
    5.9588    7.7673    0.0000 H   0  0  0  0  0  0  0  0  0  0  0  0
    6.1862    7.2262    0.0000 H   0  0  0  0  0  0  0  0  0  0  0  0
    6.8765    6.8277    0.0000 H   0  0  0  0  0  0  0  0  0  0  0  0
    6.8765    9.7809    0.0000 H   0  0  0  0  0  0  0  0  0  0  0  0
    6.1862    9.3824    0.0000 H   0  0  0  0  0  0  0  0  0  0  0  0
    9.1612    7.6937    0.0000 H   0  0  0  0  0  0  0  0  0  0  0  0
    9.8514    8.0922    0.0000 H   0  0  0  0  0  0  0  0  0  0  0  0
    9.8765    9.7809    0.0000 H   0  0  0  0  0  0  0  0  0  0  0  0
    9.1862    9.3824    0.0000 H   0  0  0  0  0  0  0  0  0  0  0  0
    4.9588    8.8412    0.0000 H   0  0  0  0  0  0  0  0  0  0  0  0
   11.2027   10.6913    0.0000 H   0  0  0  0  0  0  0  0  0  0  0  0
   10.5983   10.2092    0.0000 H   0  0  0  0  0  0  0  0  0  0  0  0
   10.5983    8.1314    0.0000 H   0  0  0  0  0  0  0  0  0  0  0  0
   11.2027    7.6493    0.0000 H   0  0  0  0  0  0  0  0  0  0  0  0
   12.6624   10.6803    0.0000 H   0  0  0  0  0  0  0  0  0  0  0  0
   11.9086   10.8524    0.0000 H   0  0  0  0  0  0  0  0  0  0  0  0
   11.9086    7.4882    0.0000 H   0  0  0  0  0  0  0  0  0  0  0  0
   12.6624    7.6602    0.0000 H   0  0  0  0  0  0  0  0  0  0  0  0
   13.8462   10.8249    0.0000 H   0  0  0  0  0  0  0  0  0  0  0  0
   13.8462    7.5157    0.0000 H   0  0  0  0  0  0  0  0  0  0  0  0
   15.2952    8.3374    0.0000 H   0  0  0  0  0  0  0  0  0  0  0  0
    3.5788    6.0353    0.0000 H   0  0  0  0  0  0  0  0  0  0  0  0
    3.5788    8.8412    0.0000 H   0  0  0  0  0  0  0  0  0  0  0  0
   16.7997   10.1620    0.0000 H   0  0  0  0  0  0  0  0  0  0  0  0
   17.0234   11.0098    0.0000 H   0  0  0  0  0  0  0  0  0  0  0  0
   16.1756   11.2335    0.0000 H   0  0  0  0  0  0  0  0  0  0  0  0
    1.9588    8.8412    0.0000 H   0  0  0  0  0  0  0  0  0  0  0  0
    1.1488    7.4382    0.0000 H   0  0  0  0  0  0  0  0  0  0  0  0
    0.0000    4.3713    0.0000 H   0  0  0  0  0  0  0  0  0  0  0  0
    0.9203    3.0642    0.0000 H   0  0  0  0  0  0  0  0  0  0  0  0
    1.6018    2.5124    0.0000 H   0  0  0  0  0  0  0  0  0  0  0  0
    2.1536    3.1938    0.0000 H   0  0  0  0  0  0  0  0  0  0  0  0
    9.0117    0.0000    0.0000 H   0  0  0  0  0  0  0  0  0  0  0  0
  1 77  1  0  0  0  0
  2  4  2  0  0  0  0
  2  5  2  0  0  0  0
  2 28  1  0  0  0  0
  2 32  1  0  0  0  0
  3 24  2  0  0  0  0
  6 36  1  0  0  0  0
  6 37  1  0  0  0  0
  7 17  1  0  0  0  0
  7 18  1  0  0  0  0
  7 19  1  0  0  0  0
  8 13  1  0  0  0  0
  8 24  1  0  0  0  0
  8 54  1  0  0  0  0
  9 36  2  0  0  0  0
  9 38  1  0  0  0  0
 10 11  1  0  0  0  0
 10 12  1  0  0  0  0
 10 16  1  0  0  0  0
 10 40  1  0  0  0  0
 11 14  1  0  0  0  0
 11 41  1  0  0  0  0
 11 42  1  0  0  0  0
 12 15  1  0  0  0  0
 12 43  1  0  0  0  0
 12 44  1  0  0  0  0
 13 14  1  0  0  0  0
 13 15  1  0  0  0  0
 13 45  1  0  0  0  0
 14 46  1  0  0  0  0
 14 47  1  0  0  0  0
 15 48  1  0  0  0  0
 15 49  1  0  0  0  0
 16 17  1  0  0  0  0
 16 50  1  0  0  0  0
 16 51  1  0  0  0  0
 17 52  1  0  0  0  0
 17 53  1  0  0  0  0
 18 20  1  0  0  0  0
 18 55  1  0  0  0  0
 18 56  1  0  0  0  0
 19 21  1  0  0  0  0
 19 57  1  0  0  0  0
 19 58  1  0  0  0  0
 20 22  1  0  0  0  0
 20 59  1  0  0  0  0
 20 60  1  0  0  0  0
 21 23  1  0  0  0  0
 21 61  1  0  0  0  0
 21 62  1  0  0  0  0
 22 23  2  0  0  0  0
 22 25  1  0  0  0  0
 23 26  1  0  0  0  0
 24 27  1  0  0  0  0
 25 28  2  0  0  0  0
 25 63  1  0  0  0  0
 26 29  2  0  0  0  0
 26 64  1  0  0  0  0
 27 30  1  0  0  0  0
 27 31  2  0  0  0  0
 28 29  1  0  0  0  0
 29 65  1  0  0  0  0
 30 33  2  0  0  0  0
 30 66  1  0  0  0  0
 31 34  1  0  0  0  0
 31 67  1  0  0  0  0
 32 68  1  0  0  0  0
 32 69  1  0  0  0  0
 32 70  1  0  0  0  0
 33 35  1  0  0  0  0
 33 36  1  0  0  0  0
 34 35  2  0  0  0  0
 34 71  1  0  0  0  0
 35 72  1  0  0  0  0
 37 38  2  0  0  0  0
 37 39  1  0  0  0  0
 38 73  1  0  0  0  0
 39 74  1  0  0  0  0
 39 75  1  0  0  0  0
 39 76  1  0  0  0  0
M  END
> <PUBCHEM_COMPOUND_CID>
45262416

> <PUBCHEM_COMPOUND_CANONICALIZED>
1

> <PUBCHEM_CACTVS_COMPLEXITY>
884

> <PUBCHEM_CACTVS_HBOND_ACCEPTOR>
6

> <PUBCHEM_CACTVS_HBOND_DONOR>
2

> <PUBCHEM_CACTVS_ROTATABLE_BOND>
7

> <PUBCHEM_CACTVS_SUBSKEYS>
AAADcfB7OABEAAAAAAAAAAAAAAAAAWAAAAAwYMAABYAAAAAB0AAAHgQQAAAADSzB2gS+hZPIFEqoArF3VHTCiCA/SDAI2LmrTNgOJrLgtTmPOQjk1gHYqYeY3+KOkAACgAAQAAAwAAUAACAAAAAAAAAAAA==

> <PUBCHEM_IUPAC_OPENEYE_NAME>
3-(5-methyloxazol-2-yl)-N-[4-[2-(7-methylsulfonyl-1,2,4,5-tetrahydro-3-benzazepin-3-yl)ethyl]cyclohexyl]benzamide;hydrochloride

> <PUBCHEM_IUPAC_CAS_NAME>
3-(5-methyl-2-oxazolyl)-N-[4-[2-(7-methylsulfonyl-1,2,4,5-tetrahydro-3-benzazepin-3-yl)ethyl]cyclohexyl]benzamide;hydrochloride

> <PUBCHEM_IUPAC_NAME_MARKUP>
3-(5-methyl-1,3-oxazol-2-yl)-<I>N</I>-[4-[2-(7-methylsulfonyl-1,2,4,5-tetrahydro-3-benzazepin-3-yl)ethyl]cyclohexyl]benzamide;hydrochloride

> <PUBCHEM_IUPAC_NAME>
3-(5-methyl-1,3-oxazol-2-yl)-N-[4-[2-(7-methylsulfonyl-1,2,4,5-tetrahydro-3-benzazepin-3-yl)ethyl]cyclohexyl]benzamide;hydrochloride

> <PUBCHEM_IUPAC_SYSTEMATIC_NAME>
3-(5-methyl-1,3-oxazol-2-yl)-N-[4-[2-(7-methylsulfonyl-1,2,4,5-tetrahydro-3-benzazepin-3-yl)ethyl]cyclohexyl]benzamide;hydrochloride

> <PUBCHEM_IUPAC_TRADITIONAL_NAME>
N-[4-[2-(7-mesyl-1,2,4,5-tetrahydro-3-benzazepin-3-yl)ethyl]cyclohexyl]-3-(5-methyloxazol-2-yl)benzamide;hydrochloride

> <PUBCHEM_IUPAC_INCHI>
InChI=1S/C30H37N3O4S.ClH/c1-21-20-31-30(37-21)26-5-3-4-25(18-26)29(34)32-27-9-6-22(7-10-27)12-15-33-16-13-23-8-11-28(38(2,35)36)19-24(23)14-17-33;/h3-5,8,11,18-20,22,27H,6-7,9-10,12-17H2,1-2H3,(H,32,34);1H

> <PUBCHEM_IUPAC_INCHIKEY>
GBODQUGHZFYXKL-UHFFFAOYSA-N

> <PUBCHEM_EXACT_MASS>
571.2271556

> <PUBCHEM_MOLECULAR_FORMULA>
C30H38ClN3O4S

> <PUBCHEM_MOLECULAR_WEIGHT>
572.2

> <PUBCHEM_OPENEYE_CAN_SMILES>
CC1=CN=C(O1)C2=CC(=CC=C2)C(=O)NC3CCC(CC3)CCN4CCC5=C(CC4)C=C(C=C5)S(=O)(=O)C.Cl

> <PUBCHEM_OPENEYE_ISO_SMILES>
CC1=CN=C(O1)C2=CC(=CC=C2)C(=O)NC3CCC(CC3)CCN4CCC5=C(CC4)C=C(C=C5)S(=O)(=O)C.Cl

> <PUBCHEM_CACTVS_TPSA>
101

> <PUBCHEM_MONOISOTOPIC_WEIGHT>
571.2271556

> <PUBCHEM_TOTAL_CHARGE>
0

> <PUBCHEM_HEAVY_ATOM_COUNT>
39

> <PUBCHEM_ATOM_DEF_STEREO_COUNT>
0

> <PUBCHEM_ATOM_UDEF_STEREO_COUNT>
0

> <PUBCHEM_BOND_DEF_STEREO_COUNT>
0

> <PUBCHEM_BOND_UDEF_STEREO_COUNT>
0

> <PUBCHEM_ISOTOPIC_ATOM_COUNT>
0

> <PUBCHEM_COMPONENT_COUNT>
2

> <PUBCHEM_CACTVS_TAUTO_COUNT>
-1

> <PUBCHEM_COORDINATE_TYPE>
1
5
255

> <PUBCHEM_BONDANNOTATIONS>
22  23  8
22  25  8
23  26  8
25  28  8
26  29  8
27  30  8
27  31  8
28  29  8
30  33  8
31  34  8
33  35  8
34  35  8
37  38  8
6  36  8
6  37  8
9  36  8
9  38  8

$$$$
