164613796
  -OEChem-09292322432D

 56 57  0     1  0  0  0  0  0999 V2000
    6.0010   -3.2249    0.0000 Cl  0  0  0  0  0  0  0  0  0  0  0  0
    8.5782    2.0069    0.0000 O   0  0  0  0  0  0  0  0  0  0  0  0
    3.4030    0.2751    0.0000 O   0  0  0  0  0  0  0  0  0  0  0  0
   12.3306    4.2249    0.0000 O   0  0  0  0  0  0  0  0  0  0  0  0
    6.0010   -1.2249    0.0000 O   0  0  0  0  0  0  0  0  0  0  0  0
    2.5369   -1.2249    0.0000 O   0  0  0  0  0  0  0  0  0  0  0  0
    6.1056    2.7696    0.0000 N   0  0  0  0  0  0  0  0  0  0  0  0
    5.1350    0.2751    0.0000 N   0  0  0  0  0  0  0  0  0  0  0  0
    6.0010    1.7751    0.0000 C   0  0  1  0  0  0  0  0  0  0  0  0
    6.9146    1.3683    0.0000 C   0  0  0  0  0  0  0  0  0  0  0  0
    7.5837    2.1115    0.0000 C   0  0  2  0  0  0  0  0  0  0  0  0
    7.0837    2.9775    0.0000 C   0  0  0  0  0  0  0  0  0  0  0  0
    5.1350    1.2751    0.0000 C   0  0  0  0  0  0  0  0  0  0  0  0
    9.1660    2.8160    0.0000 C   0  0  0  0  0  0  0  0  0  0  0  0
   10.1605    2.7114    0.0000 C   0  0  0  0  0  0  0  0  0  0  0  0
    4.2690   -0.2249    0.0000 C   0  0  0  0  0  0  0  0  0  0  0  0
   10.7483    3.5204    0.0000 C   0  0  0  0  0  0  0  0  0  0  0  0
    4.2690   -1.2249    0.0000 C   0  0  0  0  0  0  0  0  0  0  0  0
   11.7428    3.4159    0.0000 C   0  0  0  0  0  0  0  0  0  0  0  0
    3.4030   -1.7249    0.0000 C   0  0  0  0  0  0  0  0  0  0  0  0
    5.1350   -1.7249    0.0000 C   0  0  0  0  0  0  0  0  0  0  0  0
    3.4030   -2.7249    0.0000 C   0  0  0  0  0  0  0  0  0  0  0  0
    5.1350   -2.7249    0.0000 C   0  0  0  0  0  0  0  0  0  0  0  0
    2.5369   -3.2249    0.0000 C   0  0  0  0  0  0  0  0  0  0  0  0
    4.2690   -3.2249    0.0000 C   0  0  0  0  0  0  0  0  0  0  0  0
    2.5369   -4.2249    0.0000 C   0  0  0  0  0  0  0  0  0  0  0  0
    6.8671   -1.7249    0.0000 C   0  0  0  0  0  0  0  0  0  0  0  0
    5.4811    2.1127    0.0000 H   0  0  0  0  0  0  0  0  0  0  0  0
    6.6046    0.8314    0.0000 H   0  0  0  0  0  0  0  0  0  0  0  0
    7.4162    1.0039    0.0000 H   0  0  0  0  0  0  0  0  0  0  0  0
    7.8059    1.5326    0.0000 H   0  0  0  0  0  0  0  0  0  0  0  0
    7.6501    3.2297    0.0000 H   0  0  0  0  0  0  0  0  0  0  0  0
    6.8921    3.5672    0.0000 H   0  0  0  0  0  0  0  0  0  0  0  0
    5.6448    3.1844    0.0000 H   0  0  0  0  0  0  0  0  0  0  0  0
    4.9230    1.8577    0.0000 H   0  0  0  0  0  0  0  0  0  0  0  0
    4.5244    1.1674    0.0000 H   0  0  0  0  0  0  0  0  0  0  0  0
    9.3369    3.4119    0.0000 H   0  0  0  0  0  0  0  0  0  0  0  0
    8.6088    3.0878    0.0000 H   0  0  0  0  0  0  0  0  0  0  0  0
    5.6720   -0.0349    0.0000 H   0  0  0  0  0  0  0  0  0  0  0  0
    9.9896    2.1154    0.0000 H   0  0  0  0  0  0  0  0  0  0  0  0
   10.7178    2.4396    0.0000 H   0  0  0  0  0  0  0  0  0  0  0  0
   10.9192    4.1164    0.0000 H   0  0  0  0  0  0  0  0  0  0  0  0
   10.1911    3.7922    0.0000 H   0  0  0  0  0  0  0  0  0  0  0  0
   11.5720    2.8199    0.0000 H   0  0  0  0  0  0  0  0  0  0  0  0
   12.3001    3.1441    0.0000 H   0  0  0  0  0  0  0  0  0  0  0  0
    2.3249   -2.6423    0.0000 H   0  0  0  0  0  0  0  0  0  0  0  0
    1.9264   -3.3326    0.0000 H   0  0  0  0  0  0  0  0  0  0  0  0
    4.2690   -3.8449    0.0000 H   0  0  0  0  0  0  0  0  0  0  0  0
   12.9472    4.1601    0.0000 H   0  0  0  0  0  0  0  0  0  0  0  0
    1.9169   -4.2249    0.0000 H   0  0  0  0  0  0  0  0  0  0  0  0
    2.5369   -4.8449    0.0000 H   0  0  0  0  0  0  0  0  0  0  0  0
    3.1569   -4.2249    0.0000 H   0  0  0  0  0  0  0  0  0  0  0  0
    2.0000   -1.5349    0.0000 H   0  0  0  0  0  0  0  0  0  0  0  0
    6.5571   -2.2619    0.0000 H   0  0  0  0  0  0  0  0  0  0  0  0
    7.4040   -2.0349    0.0000 H   0  0  0  0  0  0  0  0  0  0  0  0
    7.1771   -1.1880    0.0000 H   0  0  0  0  0  0  0  0  0  0  0  0
  1 23  1  0  0  0  0
 11  2  1  6  0  0  0
  2 14  1  0  0  0  0
  3 16  2  0  0  0  0
  4 19  1  0  0  0  0
  4 49  1  0  0  0  0
  5 21  1  0  0  0  0
  5 27  1  0  0  0  0
  6 20  1  0  0  0  0
  6 53  1  0  0  0  0
  7  9  1  0  0  0  0
  7 12  1  0  0  0  0
  7 34  1  0  0  0  0
  8 13  1  0  0  0  0
  8 16  1  0  0  0  0
  8 39  1  0  0  0  0
  9 10  1  0  0  0  0
  9 13  1  1  0  0  0
  9 28  1  0  0  0  0
 10 11  1  0  0  0  0
 10 29  1  0  0  0  0
 10 30  1  0  0  0  0
 11 12  1  0  0  0  0
 11 31  1  0  0  0  0
 12 32  1  0  0  0  0
 12 33  1  0  0  0  0
 13 35  1  0  0  0  0
 13 36  1  0  0  0  0
 14 15  1  0  0  0  0
 14 37  1  0  0  0  0
 14 38  1  0  0  0  0
 15 17  1  0  0  0  0
 15 40  1  0  0  0  0
 15 41  1  0  0  0  0
 16 18  1  0  0  0  0
 17 19  1  0  0  0  0
 17 42  1  0  0  0  0
 17 43  1  0  0  0  0
 18 20  2  0  0  0  0
 18 21  1  0  0  0  0
 19 44  1  0  0  0  0
 19 45  1  0  0  0  0
 20 22  1  0  0  0  0
 21 23  2  0  0  0  0
 22 24  1  0  0  0  0
 22 25  2  0  0  0  0
 23 25  1  0  0  0  0
 24 26  1  0  0  0  0
 24 46  1  0  0  0  0
 24 47  1  0  0  0  0
 25 48  1  0  0  0  0
 26 50  1  0  0  0  0
 26 51  1  0  0  0  0
 26 52  1  0  0  0  0
 27 54  1  0  0  0  0
 27 55  1  0  0  0  0
 27 56  1  0  0  0  0
M  END
> <PUBCHEM_COMPOUND_CID>
164613796

> <PUBCHEM_COMPOUND_CANONICALIZED>
1

> <PUBCHEM_CACTVS_COMPLEXITY>
456

> <PUBCHEM_CACTVS_HBOND_ACCEPTOR>
6

> <PUBCHEM_CACTVS_HBOND_DONOR>
4

> <PUBCHEM_CACTVS_ROTATABLE_BOND>
10

> <PUBCHEM_CACTVS_SUBSKEYS>
AAADceB7OAAEAAAAAAAAAAAAAAAAAWAAAAAwAAAAAAAAAAABAAAAHgIQCAAADD7hmCYyBoLABgCIAiFSEACCCAAkJUAAiIEMD8gOdzeHtxuXcWhn9hWYuQf46OyOICACKAAICABAQARQABAQAAAAAAAAAA==

> <PUBCHEM_IUPAC_OPENEYE_NAME>
5-chloro-3-ethyl-2-hydroxy-N-[[(2S,4R)-4-(4-hydroxybutoxy)pyrrolidin-2-yl]methyl]-6-methoxy-benzamide

> <PUBCHEM_IUPAC_CAS_NAME>
5-chloro-3-ethyl-2-hydroxy-N-[[(2S,4R)-4-(4-hydroxybutoxy)-2-pyrrolidinyl]methyl]-6-methoxybenzamide

> <PUBCHEM_IUPAC_NAME_MARKUP>
5-chloro-3-ethyl-2-hydroxy-<I>N</I>-[[(2<I>S</I>,4<I>R</I>)-4-(4-hydroxybutoxy)pyrrolidin-2-yl]methyl]-6-methoxybenzamide

> <PUBCHEM_IUPAC_NAME>
5-chloro-3-ethyl-2-hydroxy-N-[[(2S,4R)-4-(4-hydroxybutoxy)pyrrolidin-2-yl]methyl]-6-methoxybenzamide

> <PUBCHEM_IUPAC_SYSTEMATIC_NAME>
3-chloranyl-5-ethyl-2-methoxy-6-oxidanyl-N-[[(2S,4R)-4-(4-oxidanylbutoxy)pyrrolidin-2-yl]methyl]benzamide

> <PUBCHEM_IUPAC_TRADITIONAL_NAME>
5-chloro-3-ethyl-2-hydroxy-N-[[(2S,4R)-4-(4-hydroxybutoxy)pyrrolidin-2-yl]methyl]-6-methoxy-benzamide

> <PUBCHEM_IUPAC_INCHI>
InChI=1S/C19H29ClN2O5/c1-3-12-8-15(20)18(26-2)16(17(12)24)19(25)22-10-13-9-14(11-21-13)27-7-5-4-6-23/h8,13-14,21,23-24H,3-7,9-11H2,1-2H3,(H,22,25)/t13-,14+/m0/s1

> <PUBCHEM_IUPAC_INCHIKEY>
TVZBVRPQPBYWDJ-UONOGXRCSA-N

> <PUBCHEM_XLOGP3_AA>
2.5

> <PUBCHEM_EXACT_MASS>
400.1764997

> <PUBCHEM_MOLECULAR_FORMULA>
C19H29ClN2O5

> <PUBCHEM_MOLECULAR_WEIGHT>
400.9

> <PUBCHEM_OPENEYE_CAN_SMILES>
CCC1=CC(=C(C(=C1O)C(=O)NCC2CC(CN2)OCCCCO)OC)Cl

> <PUBCHEM_OPENEYE_ISO_SMILES>
CCC1=CC(=C(C(=C1O)C(=O)NC[C@@H]2C[C@H](CN2)OCCCCO)OC)Cl

> <PUBCHEM_CACTVS_TPSA>
100

> <PUBCHEM_MONOISOTOPIC_WEIGHT>
400.1764997

> <PUBCHEM_TOTAL_CHARGE>
0

> <PUBCHEM_HEAVY_ATOM_COUNT>
27

> <PUBCHEM_ATOM_DEF_STEREO_COUNT>
2

> <PUBCHEM_ATOM_UDEF_STEREO_COUNT>
0

> <PUBCHEM_BOND_DEF_STEREO_COUNT>
0

> <PUBCHEM_BOND_UDEF_STEREO_COUNT>
0

> <PUBCHEM_ISOTOPIC_ATOM_COUNT>
0

> <PUBCHEM_COMPONENT_COUNT>
1

> <PUBCHEM_CACTVS_TAUTO_COUNT>
-1

> <PUBCHEM_COORDINATE_TYPE>
1
5
255

> <PUBCHEM_BONDANNOTATIONS>
18  20  8
18  21  8
11  2  6
20  22  8
21  23  8
22  25  8
23  25  8
9  13  5

$$$$
