162662080
  -OEChem-09292322062D

 60 64  0     0  0  0  0  0  0999 V2000
    2.7480    6.2973    0.0000 S   0  0  0  0  0  0  0  0  0  0  0  0
    7.6902   -3.1747    0.0000 F   0  0  0  0  0  0  0  0  0  0  0  0
    2.6458   -2.5161    0.0000 O   0  0  0  0  0  0  0  0  0  0  0  0
    4.4668   -6.2973    0.0000 O   0  0  0  0  0  0  0  0  0  0  0  0
    3.4457    1.2098    0.0000 N   0  0  0  0  0  0  0  0  0  0  0  0
    3.8907    3.1596    0.0000 N   0  0  0  0  0  0  0  0  0  0  0  0
    4.2442   -3.0754    0.0000 N   0  0  0  0  0  0  0  0  0  0  0  0
    3.2693   -5.0998    0.0000 N   0  0  0  0  0  0  0  0  0  0  0  0
    4.4013    1.5045    0.0000 C   0  0  0  0  0  0  0  0  0  0  0  0
    2.7126    1.8899    0.0000 C   0  0  0  0  0  0  0  0  0  0  0  0
    4.6238    2.4794    0.0000 C   0  0  0  0  0  0  0  0  0  0  0  0
    2.9352    2.8648    0.0000 C   0  0  0  0  0  0  0  0  0  0  0  0
    3.2232    0.2348    0.0000 C   0  0  0  0  0  0  0  0  0  0  0  0
    3.9562   -0.4453    0.0000 C   0  0  0  0  0  0  0  0  0  0  0  0
    3.7337   -1.4203    0.0000 C   0  0  0  0  0  0  0  0  0  0  0  0
    4.1133    4.1345    0.0000 C   0  0  0  0  0  0  0  0  0  0  0  0
    4.4668   -2.1004    0.0000 C   0  0  0  0  0  0  0  0  0  0  0  0
    3.3802    4.8147    0.0000 C   0  0  0  0  0  0  0  0  0  0  0  0
    5.0688    4.4293    0.0000 C   0  0  0  0  0  0  0  0  0  0  0  0
    3.6027    5.7896    0.0000 C   0  0  0  0  0  0  0  0  0  0  0  0
    5.0261   -3.6989    0.0000 C   0  0  0  0  0  0  0  0  0  0  0  0
    2.3899    4.7282    0.0000 C   0  0  0  0  0  0  0  0  0  0  0  0
    3.2693   -3.2979    0.0000 C   0  0  0  0  0  0  0  0  0  0  0  0
    5.2914    5.4042    0.0000 C   0  0  0  0  0  0  0  0  0  0  0  0
    4.5583    6.0844    0.0000 C   0  0  0  0  0  0  0  0  0  0  0  0
    5.0261   -4.6989    0.0000 C   0  0  0  0  0  0  0  0  0  0  0  0
    2.8354   -4.1989    0.0000 C   0  0  0  0  0  0  0  0  0  0  0  0
    2.0000    5.6426    0.0000 C   0  0  0  0  0  0  0  0  0  0  0  0
    5.9200   -3.1642    0.0000 C   0  0  0  0  0  0  0  0  0  0  0  0
    4.2442   -5.3224    0.0000 C   0  0  0  0  0  0  0  0  0  0  0  0
    5.9200   -5.2335    0.0000 C   0  0  0  0  0  0  0  0  0  0  0  0
    6.8261   -3.6780    0.0000 C   0  0  0  0  0  0  0  0  0  0  0  0
    6.8261   -4.7197    0.0000 C   0  0  0  0  0  0  0  0  0  0  0  0
    4.4784    0.8893    0.0000 H   0  0  0  0  0  0  0  0  0  0  0  0
    5.0205    1.4736    0.0000 H   0  0  0  0  0  0  0  0  0  0  0  0
    2.1413    2.1308    0.0000 H   0  0  0  0  0  0  0  0  0  0  0  0
    2.3763    1.3691    0.0000 H   0  0  0  0  0  0  0  0  0  0  0  0
    5.1951    2.2386    0.0000 H   0  0  0  0  0  0  0  0  0  0  0  0
    4.9602    3.0002    0.0000 H   0  0  0  0  0  0  0  0  0  0  0  0
    2.8581    3.4800    0.0000 H   0  0  0  0  0  0  0  0  0  0  0  0
    2.3159    2.8958    0.0000 H   0  0  0  0  0  0  0  0  0  0  0  0
    2.6519    0.4757    0.0000 H   0  0  0  0  0  0  0  0  0  0  0  0
    2.8868   -0.2860    0.0000 H   0  0  0  0  0  0  0  0  0  0  0  0
    4.5276   -0.6862    0.0000 H   0  0  0  0  0  0  0  0  0  0  0  0
    4.2926    0.0755    0.0000 H   0  0  0  0  0  0  0  0  0  0  0  0
    3.1624   -1.1795    0.0000 H   0  0  0  0  0  0  0  0  0  0  0  0
    3.3973   -1.9411    0.0000 H   0  0  0  0  0  0  0  0  0  0  0  0
    5.0381   -2.3413    0.0000 H   0  0  0  0  0  0  0  0  0  0  0  0
    4.8031   -1.5796    0.0000 H   0  0  0  0  0  0  0  0  0  0  0  0
    5.5233    4.0076    0.0000 H   0  0  0  0  0  0  0  0  0  0  0  0
    2.0710    4.1965    0.0000 H   0  0  0  0  0  0  0  0  0  0  0  0
    5.8838    5.5870    0.0000 H   0  0  0  0  0  0  0  0  0  0  0  0
    4.6963    6.6888    0.0000 H   0  0  0  0  0  0  0  0  0  0  0  0
    2.3507   -3.8123    0.0000 H   0  0  0  0  0  0  0  0  0  0  0  0
    2.3507   -4.5854    0.0000 H   0  0  0  0  0  0  0  0  0  0  0  0
    1.3955    5.7806    0.0000 H   0  0  0  0  0  0  0  0  0  0  0  0
    5.9128   -2.5442    0.0000 H   0  0  0  0  0  0  0  0  0  0  0  0
    2.8828   -5.5846    0.0000 H   0  0  0  0  0  0  0  0  0  0  0  0
    5.9128   -5.8535    0.0000 H   0  0  0  0  0  0  0  0  0  0  0  0
    7.3618   -5.0318    0.0000 H   0  0  0  0  0  0  0  0  0  0  0  0
  1 20  1  0  0  0  0
  1 28  1  0  0  0  0
  2 32  1  0  0  0  0
  3 23  2  0  0  0  0
  4 30  2  0  0  0  0
  5  9  1  0  0  0  0
  5 10  1  0  0  0  0
  5 13  1  0  0  0  0
  6 11  1  0  0  0  0
  6 12  1  0  0  0  0
  6 16  1  0  0  0  0
  7 17  1  0  0  0  0
  7 21  1  0  0  0  0
  7 23  1  0  0  0  0
  8 27  1  0  0  0  0
  8 30  1  0  0  0  0
  8 58  1  0  0  0  0
  9 11  1  0  0  0  0
  9 34  1  0  0  0  0
  9 35  1  0  0  0  0
 10 12  1  0  0  0  0
 10 36  1  0  0  0  0
 10 37  1  0  0  0  0
 11 38  1  0  0  0  0
 11 39  1  0  0  0  0
 12 40  1  0  0  0  0
 12 41  1  0  0  0  0
 13 14  1  0  0  0  0
 13 42  1  0  0  0  0
 13 43  1  0  0  0  0
 14 15  1  0  0  0  0
 14 44  1  0  0  0  0
 14 45  1  0  0  0  0
 15 17  1  0  0  0  0
 15 46  1  0  0  0  0
 15 47  1  0  0  0  0
 16 18  2  0  0  0  0
 16 19  1  0  0  0  0
 17 48  1  0  0  0  0
 17 49  1  0  0  0  0
 18 20  1  0  0  0  0
 18 22  1  0  0  0  0
 19 24  2  0  0  0  0
 19 50  1  0  0  0  0
 20 25  2  0  0  0  0
 21 26  2  0  0  0  0
 21 29  1  0  0  0  0
 22 28  2  0  0  0  0
 22 51  1  0  0  0  0
 23 27  1  0  0  0  0
 24 25  1  0  0  0  0
 24 52  1  0  0  0  0
 25 53  1  0  0  0  0
 26 30  1  0  0  0  0
 26 31  1  0  0  0  0
 27 54  1  0  0  0  0
 27 55  1  0  0  0  0
 28 56  1  0  0  0  0
 29 32  2  0  0  0  0
 29 57  1  0  0  0  0
 31 33  2  0  0  0  0
 31 59  1  0  0  0  0
 32 33  1  0  0  0  0
 33 60  1  0  0  0  0
M  END
> <PUBCHEM_COMPOUND_CID>
162662080

> <PUBCHEM_COMPOUND_CANONICALIZED>
1

> <PUBCHEM_CACTVS_COMPLEXITY>
704

> <PUBCHEM_CACTVS_HBOND_ACCEPTOR>
6

> <PUBCHEM_CACTVS_HBOND_DONOR>
1

> <PUBCHEM_CACTVS_ROTATABLE_BOND>
6

> <PUBCHEM_CACTVS_SUBSKEYS>
AAADceB7sQBAAAAAAAAAAAAAAAAAASAAAAA8YIAABYAAAEgB9AAAHwQQAAAADAjF2AywwcPAAAiMAiVSUACDAIAlChBIiJmIZMgIYDrg1bGUIYxghgDoyccYiICOAAAAACAGAAAAAAAAQAwAAAAAAAAAAA==

> <PUBCHEM_IUPAC_OPENEYE_NAME>
1-[4-[4-(benzothiophen-4-yl)piperazin-1-yl]butyl]-8-fluoro-3,4-dihydro-1,4-benzodiazepine-2,5-dione

> <PUBCHEM_IUPAC_CAS_NAME>
1-[4-[4-(1-benzothiophen-4-yl)-1-piperazinyl]butyl]-8-fluoro-3,4-dihydro-1,4-benzodiazepine-2,5-dione

> <PUBCHEM_IUPAC_NAME_MARKUP>
1-[4-[4-(1-benzothiophen-4-yl)piperazin-1-yl]butyl]-8-fluoro-3,4-dihydro-1,4-benzodiazepine-2,5-dione

> <PUBCHEM_IUPAC_NAME>
1-[4-[4-(1-benzothiophen-4-yl)piperazin-1-yl]butyl]-8-fluoro-3,4-dihydro-1,4-benzodiazepine-2,5-dione

> <PUBCHEM_IUPAC_SYSTEMATIC_NAME>
1-[4-[4-(1-benzothiophen-4-yl)piperazin-1-yl]butyl]-8-fluoranyl-3,4-dihydro-1,4-benzodiazepine-2,5-dione

> <PUBCHEM_IUPAC_TRADITIONAL_NAME>
1-[4-[4-(benzothiophen-4-yl)piperazino]butyl]-8-fluoro-3,4-dihydro-1,4-benzodiazepine-2,5-quinone

> <PUBCHEM_IUPAC_INCHI>
InChI=1S/C25H27FN4O2S/c26-18-6-7-20-22(16-18)30(24(31)17-27-25(20)32)10-2-1-9-28-11-13-29(14-12-28)21-4-3-5-23-19(21)8-15-33-23/h3-8,15-16H,1-2,9-14,17H2,(H,27,32)

> <PUBCHEM_IUPAC_INCHIKEY>
BXFQWUWUYQYATQ-UHFFFAOYSA-N

> <PUBCHEM_XLOGP3_AA>
3.8

> <PUBCHEM_EXACT_MASS>
466.18387545

> <PUBCHEM_MOLECULAR_FORMULA>
C25H27FN4O2S

> <PUBCHEM_MOLECULAR_WEIGHT>
466.6

> <PUBCHEM_OPENEYE_CAN_SMILES>
C1CN(CCN1CCCCN2C(=O)CNC(=O)C3=C2C=C(C=C3)F)C4=C5C=CSC5=CC=C4

> <PUBCHEM_OPENEYE_ISO_SMILES>
C1CN(CCN1CCCCN2C(=O)CNC(=O)C3=C2C=C(C=C3)F)C4=C5C=CSC5=CC=C4

> <PUBCHEM_CACTVS_TPSA>
84.1

> <PUBCHEM_MONOISOTOPIC_WEIGHT>
466.18387545

> <PUBCHEM_TOTAL_CHARGE>
0

> <PUBCHEM_HEAVY_ATOM_COUNT>
33

> <PUBCHEM_ATOM_DEF_STEREO_COUNT>
0

> <PUBCHEM_ATOM_UDEF_STEREO_COUNT>
0

> <PUBCHEM_BOND_DEF_STEREO_COUNT>
0

> <PUBCHEM_BOND_UDEF_STEREO_COUNT>
0

> <PUBCHEM_ISOTOPIC_ATOM_COUNT>
0

> <PUBCHEM_COMPONENT_COUNT>
1

> <PUBCHEM_CACTVS_TAUTO_COUNT>
-1

> <PUBCHEM_COORDINATE_TYPE>
1
5
255

> <PUBCHEM_BONDANNOTATIONS>
1  20  8
1  28  8
16  18  8
16  19  8
18  20  8
18  22  8
19  24  8
20  25  8
21  26  8
21  29  8
22  28  8
24  25  8
26  31  8
29  32  8
31  33  8
32  33  8

$$$$
