1946142
  -OEChem-09292322182D

 56 60  0     1  0  0  0  0  0999 V2000
    4.3211    0.9931    0.0000 O   0  0  0  0  0  0  0  0  0  0  0  0
    9.9785   -4.4926    0.0000 O   0  0  0  0  0  0  0  0  0  0  0  0
   11.0534   -3.2947    0.0000 O   0  0  0  0  0  0  0  0  0  0  0  0
    6.2781    0.5806    0.0000 N   0  0  0  0  0  0  0  0  0  0  0  0
    6.8994   -1.3204    0.0000 N   0  0  0  0  0  0  0  0  0  0  0  0
    4.6783    2.6879    0.0000 N   0  0  0  0  0  0  0  0  0  0  0  0
    5.2619    3.4926    0.0000 C   0  0  1  0  0  0  0  0  0  0  0  0
    5.6103   -0.1637    0.0000 C   0  0  0  0  0  0  0  0  0  0  0  0
    7.2566    0.3744    0.0000 C   0  0  0  0  0  0  0  0  0  0  0  0
    5.9209   -1.1142    0.0000 C   0  0  0  0  0  0  0  0  0  0  0  0
    7.5673   -0.5761    0.0000 C   0  0  0  0  0  0  0  0  0  0  0  0
    5.9674    1.5312    0.0000 C   0  0  0  0  0  0  0  0  0  0  0  0
    4.6783    4.2974    0.0000 C   0  0  0  0  0  0  0  0  0  0  0  0
    3.7320    2.9926    0.0000 C   0  0  0  0  0  0  0  0  0  0  0  0
    3.7320    3.9926    0.0000 C   0  0  0  0  0  0  0  0  0  0  0  0
    4.9889    1.7374    0.0000 C   0  0  0  0  0  0  0  0  0  0  0  0
    7.2101   -2.2709    0.0000 C   0  0  0  0  0  0  0  0  0  0  0  0
    6.2619    3.4926    0.0000 C   0  0  0  0  0  0  0  0  0  0  0  0
    2.8660    2.4926    0.0000 C   0  0  0  0  0  0  0  0  0  0  0  0
    8.1886   -2.4772    0.0000 C   0  0  0  0  0  0  0  0  0  0  0  0
    2.8660    4.4926    0.0000 C   0  0  0  0  0  0  0  0  0  0  0  0
    2.0000    2.9926    0.0000 C   0  0  0  0  0  0  0  0  0  0  0  0
    2.0000    3.9926    0.0000 C   0  0  0  0  0  0  0  0  0  0  0  0
    8.4993   -3.4277    0.0000 C   0  0  0  0  0  0  0  0  0  0  0  0
    8.8564   -1.7328    0.0000 C   0  0  0  0  0  0  0  0  0  0  0  0
    9.4778   -3.6339    0.0000 C   0  0  0  0  0  0  0  0  0  0  0  0
    9.8349   -1.9391    0.0000 C   0  0  0  0  0  0  0  0  0  0  0  0
   10.1456   -2.8896    0.0000 C   0  0  0  0  0  0  0  0  0  0  0  0
   10.9503   -4.2834    0.0000 C   0  0  0  0  0  0  0  0  0  0  0  0
    5.5436    2.9403    0.0000 H   0  0  0  0  0  0  0  0  0  0  0  0
    5.2277    0.3242    0.0000 H   0  0  0  0  0  0  0  0  0  0  0  0
    5.0633   -0.4557    0.0000 H   0  0  0  0  0  0  0  0  0  0  0  0
    7.8704    0.4618    0.0000 H   0  0  0  0  0  0  0  0  0  0  0  0
    7.2772    0.9941    0.0000 H   0  0  0  0  0  0  0  0  0  0  0  0
    5.3071   -1.2015    0.0000 H   0  0  0  0  0  0  0  0  0  0  0  0
    5.9004   -1.7338    0.0000 H   0  0  0  0  0  0  0  0  0  0  0  0
    7.9498   -1.0640    0.0000 H   0  0  0  0  0  0  0  0  0  0  0  0
    8.1142   -0.2841    0.0000 H   0  0  0  0  0  0  0  0  0  0  0  0
    6.5812    1.6185    0.0000 H   0  0  0  0  0  0  0  0  0  0  0  0
    5.9880    2.1508    0.0000 H   0  0  0  0  0  0  0  0  0  0  0  0
    5.2156    4.6066    0.0000 H   0  0  0  0  0  0  0  0  0  0  0  0
    4.4272    4.8643    0.0000 H   0  0  0  0  0  0  0  0  0  0  0  0
    6.5963   -2.3583    0.0000 H   0  0  0  0  0  0  0  0  0  0  0  0
    7.1895   -2.8906    0.0000 H   0  0  0  0  0  0  0  0  0  0  0  0
    6.2619    2.8726    0.0000 H   0  0  0  0  0  0  0  0  0  0  0  0
    6.8819    3.4926    0.0000 H   0  0  0  0  0  0  0  0  0  0  0  0
    6.2619    4.1126    0.0000 H   0  0  0  0  0  0  0  0  0  0  0  0
    2.8660    1.8726    0.0000 H   0  0  0  0  0  0  0  0  0  0  0  0
    2.8660    5.1126    0.0000 H   0  0  0  0  0  0  0  0  0  0  0  0
    1.4631    2.6826    0.0000 H   0  0  0  0  0  0  0  0  0  0  0  0
    1.4631    4.3026    0.0000 H   0  0  0  0  0  0  0  0  0  0  0  0
    8.0852   -3.8891    0.0000 H   0  0  0  0  0  0  0  0  0  0  0  0
    8.6638   -1.1435    0.0000 H   0  0  0  0  0  0  0  0  0  0  0  0
   10.2490   -1.4776    0.0000 H   0  0  0  0  0  0  0  0  0  0  0  0
   11.0164   -4.8999    0.0000 H   0  0  0  0  0  0  0  0  0  0  0  0
   11.5703   -4.2825    0.0000 H   0  0  0  0  0  0  0  0  0  0  0  0
  1 16  2  0  0  0  0
  2 26  1  0  0  0  0
  2 29  1  0  0  0  0
  3 28  1  0  0  0  0
  3 29  1  0  0  0  0
  4  8  1  0  0  0  0
  4  9  1  0  0  0  0
  4 12  1  0  0  0  0
  5 10  1  0  0  0  0
  5 11  1  0  0  0  0
  5 17  1  0  0  0  0
  6  7  1  0  0  0  0
  6 14  1  0  0  0  0
  6 16  1  0  0  0  0
  7 13  1  0  0  0  0
  7 18  1  1  0  0  0
  7 30  1  0  0  0  0
  8 10  1  0  0  0  0
  8 31  1  0  0  0  0
  8 32  1  0  0  0  0
  9 11  1  0  0  0  0
  9 33  1  0  0  0  0
  9 34  1  0  0  0  0
 10 35  1  0  0  0  0
 10 36  1  0  0  0  0
 11 37  1  0  0  0  0
 11 38  1  0  0  0  0
 12 16  1  0  0  0  0
 12 39  1  0  0  0  0
 12 40  1  0  0  0  0
 13 15  1  0  0  0  0
 13 41  1  0  0  0  0
 13 42  1  0  0  0  0
 14 15  1  0  0  0  0
 14 19  2  0  0  0  0
 15 21  2  0  0  0  0
 17 20  1  0  0  0  0
 17 43  1  0  0  0  0
 17 44  1  0  0  0  0
 18 45  1  0  0  0  0
 18 46  1  0  0  0  0
 18 47  1  0  0  0  0
 19 22  1  0  0  0  0
 19 48  1  0  0  0  0
 20 24  2  0  0  0  0
 20 25  1  0  0  0  0
 21 23  1  0  0  0  0
 21 49  1  0  0  0  0
 22 23  2  0  0  0  0
 22 50  1  0  0  0  0
 23 51  1  0  0  0  0
 24 26  1  0  0  0  0
 24 52  1  0  0  0  0
 25 27  2  0  0  0  0
 25 53  1  0  0  0  0
 26 28  2  0  0  0  0
 27 28  1  0  0  0  0
 27 54  1  0  0  0  0
 29 55  1  0  0  0  0
 29 56  1  0  0  0  0
M  END
> <PUBCHEM_COMPOUND_CID>
1946142

> <PUBCHEM_COMPOUND_CANONICALIZED>
1

> <PUBCHEM_CACTVS_COMPLEXITY>
580

> <PUBCHEM_CACTVS_HBOND_ACCEPTOR>
5

> <PUBCHEM_CACTVS_HBOND_DONOR>
0

> <PUBCHEM_CACTVS_ROTATABLE_BOND>
4

> <PUBCHEM_CACTVS_SUBSKEYS>
AAADceB7MAAAAAAAAAAAAAAAAAAAAWJAAAA8YIAAAAAAAFgBQAAAHgAAAAAADCzBmAcyzoMABACIAiVSUACCCAAhIgAIiACO7IgdZiLEsbu0MCpkxhHO6Aew0JIOIAABAAACQABAAAIAAASAAAAAAAAAAA==

> <PUBCHEM_IUPAC_OPENEYE_NAME>
2-[4-(1,3-benzodioxol-5-ylmethyl)piperazin-1-yl]-1-[(2R)-2-methylindolin-1-yl]ethanone

> <PUBCHEM_IUPAC_CAS_NAME>
2-[4-(1,3-benzodioxol-5-ylmethyl)-1-piperazinyl]-1-[(2R)-2-methyl-2,3-dihydroindol-1-yl]ethanone

> <PUBCHEM_IUPAC_NAME_MARKUP>
2-[4-(1,3-benzodioxol-5-ylmethyl)piperazin-1-yl]-1-[(2<I>R</I>)-2-methyl-2,3-dihydroindol-1-yl]ethanone

> <PUBCHEM_IUPAC_NAME>
2-[4-(1,3-benzodioxol-5-ylmethyl)piperazin-1-yl]-1-[(2R)-2-methyl-2,3-dihydroindol-1-yl]ethanone

> <PUBCHEM_IUPAC_SYSTEMATIC_NAME>
2-[4-(1,3-benzodioxol-5-ylmethyl)piperazin-1-yl]-1-[(2R)-2-methyl-2,3-dihydroindol-1-yl]ethanone

> <PUBCHEM_IUPAC_TRADITIONAL_NAME>
1-[(2R)-2-methylindolin-1-yl]-2-(4-piperonylpiperazino)ethanone

> <PUBCHEM_IUPAC_INCHI>
InChI=1S/C23H27N3O3/c1-17-12-19-4-2-3-5-20(19)26(17)23(27)15-25-10-8-24(9-11-25)14-18-6-7-21-22(13-18)29-16-28-21/h2-7,13,17H,8-12,14-16H2,1H3/t17-/m1/s1

> <PUBCHEM_IUPAC_INCHIKEY>
WNIDJZPMTZKYGD-QGZVFWFLSA-N

> <PUBCHEM_XLOGP3_AA>
2.9

> <PUBCHEM_EXACT_MASS>
393.20524173

> <PUBCHEM_MOLECULAR_FORMULA>
C23H27N3O3

> <PUBCHEM_MOLECULAR_WEIGHT>
393.5

> <PUBCHEM_OPENEYE_CAN_SMILES>
CC1CC2=CC=CC=C2N1C(=O)CN3CCN(CC3)CC4=CC5=C(C=C4)OCO5

> <PUBCHEM_OPENEYE_ISO_SMILES>
C[C@@H]1CC2=CC=CC=C2N1C(=O)CN3CCN(CC3)CC4=CC5=C(C=C4)OCO5

> <PUBCHEM_CACTVS_TPSA>
45.2

> <PUBCHEM_MONOISOTOPIC_WEIGHT>
393.20524173

> <PUBCHEM_TOTAL_CHARGE>
0

> <PUBCHEM_HEAVY_ATOM_COUNT>
29

> <PUBCHEM_ATOM_DEF_STEREO_COUNT>
1

> <PUBCHEM_ATOM_UDEF_STEREO_COUNT>
0

> <PUBCHEM_BOND_DEF_STEREO_COUNT>
0

> <PUBCHEM_BOND_UDEF_STEREO_COUNT>
0

> <PUBCHEM_ISOTOPIC_ATOM_COUNT>
0

> <PUBCHEM_COMPONENT_COUNT>
1

> <PUBCHEM_CACTVS_TAUTO_COUNT>
-1

> <PUBCHEM_COORDINATE_TYPE>
1
5
255

> <PUBCHEM_BONDANNOTATIONS>
14  15  8
14  19  8
15  21  8
19  22  8
20  24  8
20  25  8
21  23  8
22  23  8
24  26  8
25  27  8
26  28  8
27  28  8
7  18  5

$$$$
