44287265
  -OEChem-09292322502D

 56 58  0     1  0  0  0  0  0999 V2000
    7.1892   -0.2128    0.0000 O   0  0  0  0  0  0  0  0  0  0  0  0
    6.3125   -1.7373    0.0000 O   0  0  0  0  0  0  0  0  0  0  0  0
    2.0000   -3.2873    0.0000 O   0  0  0  0  0  0  0  0  0  0  0  0
    8.9212    1.7872    0.0000 N   0  0  0  0  0  0  0  0  0  0  0  0
    8.0552    1.2872    0.0000 C   0  0  3  0  0  0  0  0  0  0  0  0
    7.1892    1.7872    0.0000 C   0  0  0  0  0  0  0  0  0  0  0  0
    8.0552    0.2872    0.0000 C   0  0  0  0  0  0  0  0  0  0  0  0
    9.7872    1.2872    0.0000 C   0  0  0  0  0  0  0  0  0  0  0  0
    8.9212    2.7872    0.0000 C   0  0  0  0  0  0  0  0  0  0  0  0
    6.3231    1.2872    0.0000 C   0  0  0  0  0  0  0  0  0  0  0  0
    6.3231    0.2872    0.0000 C   0  0  0  0  0  0  0  0  0  0  0  0
   10.6532    1.7872    0.0000 C   0  0  0  0  0  0  0  0  0  0  0  0
    9.7872    3.2872    0.0000 C   0  0  0  0  0  0  0  0  0  0  0  0
    5.4292    1.8219    0.0000 C   0  0  0  0  0  0  0  0  0  0  0  0
    5.4292   -0.2474    0.0000 C   0  0  0  0  0  0  0  0  0  0  0  0
    4.5231    1.3080    0.0000 C   0  0  0  0  0  0  0  0  0  0  0  0
   11.5193    1.2872    0.0000 C   0  0  0  0  0  0  0  0  0  0  0  0
    9.7872    4.2872    0.0000 C   0  0  0  0  0  0  0  0  0  0  0  0
    4.5231    0.2664    0.0000 C   0  0  0  0  0  0  0  0  0  0  0  0
    5.4407   -1.2474    0.0000 C   0  0  0  0  0  0  0  0  0  0  0  0
    4.5806   -1.7574    0.0000 C   0  0  0  0  0  0  0  0  0  0  0  0
    4.5921   -2.7573    0.0000 C   0  0  0  0  0  0  0  0  0  0  0  0
    3.7088   -1.2674    0.0000 C   0  0  0  0  0  0  0  0  0  0  0  0
    3.7319   -3.2673    0.0000 C   0  0  0  0  0  0  0  0  0  0  0  0
    2.8486   -1.7774    0.0000 C   0  0  0  0  0  0  0  0  0  0  0  0
    2.8602   -2.7773    0.0000 C   0  0  0  0  0  0  0  0  0  0  0  0
    2.0116   -4.2872    0.0000 C   0  0  0  0  0  0  0  0  0  0  0  0
    8.5921    0.9772    0.0000 H   0  0  0  0  0  0  0  0  0  0  0  0
    7.5877    2.2622    0.0000 H   0  0  0  0  0  0  0  0  0  0  0  0
    6.7906    2.2622    0.0000 H   0  0  0  0  0  0  0  0  0  0  0  0
    8.2672   -0.2954    0.0000 H   0  0  0  0  0  0  0  0  0  0  0  0
    8.6657    0.3949    0.0000 H   0  0  0  0  0  0  0  0  0  0  0  0
    9.3887    0.8123    0.0000 H   0  0  0  0  0  0  0  0  0  0  0  0
   10.1858    0.8123    0.0000 H   0  0  0  0  0  0  0  0  0  0  0  0
    8.7092    3.3698    0.0000 H   0  0  0  0  0  0  0  0  0  0  0  0
    8.3106    2.6796    0.0000 H   0  0  0  0  0  0  0  0  0  0  0  0
   11.0518    2.2622    0.0000 H   0  0  0  0  0  0  0  0  0  0  0  0
   10.2547    2.2622    0.0000 H   0  0  0  0  0  0  0  0  0  0  0  0
    9.9993    2.7046    0.0000 H   0  0  0  0  0  0  0  0  0  0  0  0
   10.3978    3.3949    0.0000 H   0  0  0  0  0  0  0  0  0  0  0  0
    5.4364    2.4418    0.0000 H   0  0  0  0  0  0  0  0  0  0  0  0
    3.9874    1.6201    0.0000 H   0  0  0  0  0  0  0  0  0  0  0  0
   11.2093    0.7503    0.0000 H   0  0  0  0  0  0  0  0  0  0  0  0
   12.0562    0.9772    0.0000 H   0  0  0  0  0  0  0  0  0  0  0  0
   11.8293    1.8242    0.0000 H   0  0  0  0  0  0  0  0  0  0  0  0
   10.4072    4.2872    0.0000 H   0  0  0  0  0  0  0  0  0  0  0  0
    9.7872    4.9072    0.0000 H   0  0  0  0  0  0  0  0  0  0  0  0
    9.1672    4.2872    0.0000 H   0  0  0  0  0  0  0  0  0  0  0  0
    3.9874   -0.0457    0.0000 H   0  0  0  0  0  0  0  0  0  0  0  0
    5.1326   -3.0610    0.0000 H   0  0  0  0  0  0  0  0  0  0  0  0
    3.7016   -0.6474    0.0000 H   0  0  0  0  0  0  0  0  0  0  0  0
    3.7391   -3.8872    0.0000 H   0  0  0  0  0  0  0  0  0  0  0  0
    2.3081   -1.4736    0.0000 H   0  0  0  0  0  0  0  0  0  0  0  0
    1.3916   -4.2944    0.0000 H   0  0  0  0  0  0  0  0  0  0  0  0
    2.0187   -4.9072    0.0000 H   0  0  0  0  0  0  0  0  0  0  0  0
    2.6315   -4.2801    0.0000 H   0  0  0  0  0  0  0  0  0  0  0  0
  1  7  1  0  0  0  0
  1 11  1  0  0  0  0
  2 20  2  0  0  0  0
  3 26  1  0  0  0  0
  3 27  1  0  0  0  0
  4  5  1  0  0  0  0
  4  8  1  0  0  0  0
  4  9  1  0  0  0  0
  5  6  1  0  0  0  0
  5  7  1  0  0  0  0
  5 28  1  0  0  0  0
  6 10  1  0  0  0  0
  6 29  1  0  0  0  0
  6 30  1  0  0  0  0
  7 31  1  0  0  0  0
  7 32  1  0  0  0  0
  8 12  1  0  0  0  0
  8 33  1  0  0  0  0
  8 34  1  0  0  0  0
  9 13  1  0  0  0  0
  9 35  1  0  0  0  0
  9 36  1  0  0  0  0
 10 11  2  0  0  0  0
 10 14  1  0  0  0  0
 11 15  1  0  0  0  0
 12 17  1  0  0  0  0
 12 37  1  0  0  0  0
 12 38  1  0  0  0  0
 13 18  1  0  0  0  0
 13 39  1  0  0  0  0
 13 40  1  0  0  0  0
 14 16  2  0  0  0  0
 14 41  1  0  0  0  0
 15 19  2  0  0  0  0
 15 20  1  0  0  0  0
 16 19  1  0  0  0  0
 16 42  1  0  0  0  0
 17 43  1  0  0  0  0
 17 44  1  0  0  0  0
 17 45  1  0  0  0  0
 18 46  1  0  0  0  0
 18 47  1  0  0  0  0
 18 48  1  0  0  0  0
 19 49  1  0  0  0  0
 20 21  1  0  0  0  0
 21 22  2  0  0  0  0
 21 23  1  0  0  0  0
 22 24  1  0  0  0  0
 22 50  1  0  0  0  0
 23 25  2  0  0  0  0
 23 51  1  0  0  0  0
 24 26  2  0  0  0  0
 24 52  1  0  0  0  0
 25 26  1  0  0  0  0
 25 53  1  0  0  0  0
 27 54  1  0  0  0  0
 27 55  1  0  0  0  0
 27 56  1  0  0  0  0
M  END
> <PUBCHEM_COMPOUND_CID>
44287265

> <PUBCHEM_COMPOUND_CANONICALIZED>
1

> <PUBCHEM_CACTVS_COMPLEXITY>
455

> <PUBCHEM_CACTVS_HBOND_ACCEPTOR>
4

> <PUBCHEM_CACTVS_HBOND_DONOR>
0

> <PUBCHEM_CACTVS_ROTATABLE_BOND>
8

> <PUBCHEM_CACTVS_SUBSKEYS>
AAADceB6MAAAAAAAAAAAAAAAAAAAAAAAAAA0YIAAAAAAAACRQAAAHgAAAAAADCzhmAYyBoMABACIAqBSAAACCAAkIAAIiAEOCMgOJjaEtRuHOWCk4BGYqYe4zODOIAACAAAIAABAAAQAABAAAAAAAAAAAA==

> <PUBCHEM_IUPAC_OPENEYE_NAME>
[3-(dipropylamino)chroman-8-yl]-(4-methoxyphenyl)methanone

> <PUBCHEM_IUPAC_CAS_NAME>
[3-(dipropylamino)-3,4-dihydro-2H-1-benzopyran-8-yl]-(4-methoxyphenyl)methanone

> <PUBCHEM_IUPAC_NAME_MARKUP>
[3-(dipropylamino)-3,4-dihydro-2<I>H</I>-chromen-8-yl]-(4-methoxyphenyl)methanone

> <PUBCHEM_IUPAC_NAME>
[3-(dipropylamino)-3,4-dihydro-2H-chromen-8-yl]-(4-methoxyphenyl)methanone

> <PUBCHEM_IUPAC_SYSTEMATIC_NAME>
[3-(dipropylamino)-3,4-dihydro-2H-chromen-8-yl]-(4-methoxyphenyl)methanone

> <PUBCHEM_IUPAC_TRADITIONAL_NAME>
[3-(dipropylamino)chroman-8-yl]-(4-methoxyphenyl)methanone

> <PUBCHEM_IUPAC_INCHI>
InChI=1S/C23H29NO3/c1-4-13-24(14-5-2)19-15-18-7-6-8-21(23(18)27-16-19)22(25)17-9-11-20(26-3)12-10-17/h6-12,19H,4-5,13-16H2,1-3H3

> <PUBCHEM_IUPAC_INCHIKEY>
GMKQIBRZRXDXMT-UHFFFAOYSA-N

> <PUBCHEM_XLOGP3_AA>
5.1

> <PUBCHEM_EXACT_MASS>
367.21474379

> <PUBCHEM_MOLECULAR_FORMULA>
C23H29NO3

> <PUBCHEM_MOLECULAR_WEIGHT>
367.5

> <PUBCHEM_OPENEYE_CAN_SMILES>
CCCN(CCC)C1CC2=C(C(=CC=C2)C(=O)C3=CC=C(C=C3)OC)OC1

> <PUBCHEM_OPENEYE_ISO_SMILES>
CCCN(CCC)C1CC2=C(C(=CC=C2)C(=O)C3=CC=C(C=C3)OC)OC1

> <PUBCHEM_CACTVS_TPSA>
38.8

> <PUBCHEM_MONOISOTOPIC_WEIGHT>
367.21474379

> <PUBCHEM_TOTAL_CHARGE>
0

> <PUBCHEM_HEAVY_ATOM_COUNT>
27

> <PUBCHEM_ATOM_DEF_STEREO_COUNT>
0

> <PUBCHEM_ATOM_UDEF_STEREO_COUNT>
1

> <PUBCHEM_BOND_DEF_STEREO_COUNT>
0

> <PUBCHEM_BOND_UDEF_STEREO_COUNT>
0

> <PUBCHEM_ISOTOPIC_ATOM_COUNT>
0

> <PUBCHEM_COMPONENT_COUNT>
1

> <PUBCHEM_CACTVS_TAUTO_COUNT>
-1

> <PUBCHEM_COORDINATE_TYPE>
1
5
255

> <PUBCHEM_BONDANNOTATIONS>
10  11  8
10  14  8
11  15  8
14  16  8
15  19  8
16  19  8
21  22  8
21  23  8
22  24  8
23  25  8
24  26  8
25  26  8
5  4  3

$$$$
