13680883
  -OEChem-09292322462D

 29 30  0     0  0  0  0  0  0999 V2000
    6.7619   -1.0350    0.0000 O   0  0  0  0  0  0  0  0  0  0  0  0
    4.6783   -0.9737    0.0000 N   0  0  0  0  0  0  0  0  0  0  0  0
    6.7619    0.6970    0.0000 N   0  0  0  0  0  0  0  0  0  0  0  0
    7.7619    0.6970    0.0000 C   0  0  0  0  0  0  0  0  0  0  0  0
    5.2619   -0.1690    0.0000 C   0  0  0  0  0  0  0  0  0  0  0  0
    3.7320   -0.6690    0.0000 C   0  0  0  0  0  0  0  0  0  0  0  0
    3.7320    0.3310    0.0000 C   0  0  0  0  0  0  0  0  0  0  0  0
    4.6783    0.6357    0.0000 C   0  0  0  0  0  0  0  0  0  0  0  0
    6.2619   -0.1690    0.0000 C   0  0  0  0  0  0  0  0  0  0  0  0
    8.2619    1.5630    0.0000 C   0  0  0  0  0  0  0  0  0  0  0  0
    8.2619   -0.1690    0.0000 C   0  0  0  0  0  0  0  0  0  0  0  0
    2.8660   -1.1690    0.0000 C   0  0  0  0  0  0  0  0  0  0  0  0
    2.8660    0.8310    0.0000 C   0  0  0  0  0  0  0  0  0  0  0  0
    2.0000   -0.6690    0.0000 C   0  0  0  0  0  0  0  0  0  0  0  0
    2.0000    0.3310    0.0000 C   0  0  0  0  0  0  0  0  0  0  0  0
    7.4519    0.1601    0.0000 H   0  0  0  0  0  0  0  0  0  0  0  0
    4.8709   -1.5630    0.0000 H   0  0  0  0  0  0  0  0  0  0  0  0
    4.8709    1.2251    0.0000 H   0  0  0  0  0  0  0  0  0  0  0  0
    6.4519    1.2340    0.0000 H   0  0  0  0  0  0  0  0  0  0  0  0
    8.7988    1.2530    0.0000 H   0  0  0  0  0  0  0  0  0  0  0  0
    8.5719    2.1000    0.0000 H   0  0  0  0  0  0  0  0  0  0  0  0
    7.7249    1.8730    0.0000 H   0  0  0  0  0  0  0  0  0  0  0  0
    7.7249   -0.4790    0.0000 H   0  0  0  0  0  0  0  0  0  0  0  0
    8.5719   -0.7059    0.0000 H   0  0  0  0  0  0  0  0  0  0  0  0
    8.7988    0.1410    0.0000 H   0  0  0  0  0  0  0  0  0  0  0  0
    2.8660   -1.7890    0.0000 H   0  0  0  0  0  0  0  0  0  0  0  0
    2.8660    1.4510    0.0000 H   0  0  0  0  0  0  0  0  0  0  0  0
    1.4631   -0.9790    0.0000 H   0  0  0  0  0  0  0  0  0  0  0  0
    1.4631    0.6410    0.0000 H   0  0  0  0  0  0  0  0  0  0  0  0
  1  9  2  0  0  0  0
  2  5  1  0  0  0  0
  2  6  1  0  0  0  0
  2 17  1  0  0  0  0
  3  4  1  0  0  0  0
  3  9  1  0  0  0  0
  3 19  1  0  0  0  0
  4 10  1  0  0  0  0
  4 11  1  0  0  0  0
  4 16  1  0  0  0  0
  5  8  2  0  0  0  0
  5  9  1  0  0  0  0
  6  7  1  0  0  0  0
  6 12  2  0  0  0  0
  7  8  1  0  0  0  0
  7 13  2  0  0  0  0
  8 18  1  0  0  0  0
 10 20  1  0  0  0  0
 10 21  1  0  0  0  0
 10 22  1  0  0  0  0
 11 23  1  0  0  0  0
 11 24  1  0  0  0  0
 11 25  1  0  0  0  0
 12 14  1  0  0  0  0
 12 26  1  0  0  0  0
 13 15  1  0  0  0  0
 13 27  1  0  0  0  0
 14 15  2  0  0  0  0
 14 28  1  0  0  0  0
 15 29  1  0  0  0  0
M  END
> <PUBCHEM_COMPOUND_CID>
13680883

> <PUBCHEM_COMPOUND_CANONICALIZED>
1

> <PUBCHEM_CACTVS_COMPLEXITY>
240

> <PUBCHEM_CACTVS_HBOND_ACCEPTOR>
1

> <PUBCHEM_CACTVS_HBOND_DONOR>
2

> <PUBCHEM_CACTVS_ROTATABLE_BOND>
2

> <PUBCHEM_CACTVS_SUBSKEYS>
AAADccBzIAAAAAAAAAAAAAAAAAAAAWAAAAAwAAAAAAAAAFgB8AAAHgAQAAAADCjBngQywPLJkACoAyVyVACCgCAnAiAImaG4ZNgIYPLAlbGUIQhglgDIyYcYiYCeAAAAAAACAAAAAAAAAAQAAAAAAAAAAA==

> <PUBCHEM_IUPAC_OPENEYE_NAME>
N-isopropyl-1H-indole-2-carboxamide

> <PUBCHEM_IUPAC_CAS_NAME>
N-propan-2-yl-1H-indole-2-carboxamide

> <PUBCHEM_IUPAC_NAME_MARKUP>
<I>N</I>-propan-2-yl-1<I>H</I>-indole-2-carboxamide

> <PUBCHEM_IUPAC_NAME>
N-propan-2-yl-1H-indole-2-carboxamide

> <PUBCHEM_IUPAC_SYSTEMATIC_NAME>
N-propan-2-yl-1H-indole-2-carboxamide

> <PUBCHEM_IUPAC_TRADITIONAL_NAME>
N-isopropyl-1H-indole-2-carboxamide

> <PUBCHEM_IUPAC_INCHI>
InChI=1S/C12H14N2O/c1-8(2)13-12(15)11-7-9-5-3-4-6-10(9)14-11/h3-8,14H,1-2H3,(H,13,15)

> <PUBCHEM_IUPAC_INCHIKEY>
FAIUHDKHIFKHPO-UHFFFAOYSA-N

> <PUBCHEM_XLOGP3>
2.9

> <PUBCHEM_EXACT_MASS>
202.110613074

> <PUBCHEM_MOLECULAR_FORMULA>
C12H14N2O

> <PUBCHEM_MOLECULAR_WEIGHT>
202.25

> <PUBCHEM_OPENEYE_CAN_SMILES>
CC(C)NC(=O)C1=CC2=CC=CC=C2N1

> <PUBCHEM_OPENEYE_ISO_SMILES>
CC(C)NC(=O)C1=CC2=CC=CC=C2N1

> <PUBCHEM_CACTVS_TPSA>
44.9

> <PUBCHEM_MONOISOTOPIC_WEIGHT>
202.110613074

> <PUBCHEM_TOTAL_CHARGE>
0

> <PUBCHEM_HEAVY_ATOM_COUNT>
15

> <PUBCHEM_ATOM_DEF_STEREO_COUNT>
0

> <PUBCHEM_ATOM_UDEF_STEREO_COUNT>
0

> <PUBCHEM_BOND_DEF_STEREO_COUNT>
0

> <PUBCHEM_BOND_UDEF_STEREO_COUNT>
0

> <PUBCHEM_ISOTOPIC_ATOM_COUNT>
0

> <PUBCHEM_COMPONENT_COUNT>
1

> <PUBCHEM_CACTVS_TAUTO_COUNT>
-1

> <PUBCHEM_COORDINATE_TYPE>
1
5
255

> <PUBCHEM_BONDANNOTATIONS>
12  14  8
13  15  8
14  15  8
2  5  8
2  6  8
5  8  8
6  12  8
6  7  8
7  13  8
7  8  8

$$$$
