168295575
  -OEChem-09292322022D

 70 69  0     1  0  0  0  0  0999 V2000
   13.6444    5.4804    0.0000 S   0  0  0  0  0  0  0  0  0  0  0  0
    8.8229   10.6510    0.0000 F   0  0  0  0  0  0  0  0  0  0  0  0
    9.1889   12.0170    0.0000 F   0  0  0  0  0  0  0  0  0  0  0  0
   10.1889   10.2849    0.0000 F   0  0  0  0  0  0  0  0  0  0  0  0
    1.3660    5.1425    0.0000 F   0  0  0  0  0  0  0  0  0  0  0  0
    0.0000    5.5085    0.0000 F   0  0  0  0  0  0  0  0  0  0  0  0
    0.3660    6.8745    0.0000 F   0  0  0  0  0  0  0  0  0  0  0  0
    9.2097    4.9750    0.0000 O   0  0  0  0  0  0  0  0  0  0  0  0
   11.4210   11.1510    0.0000 O   0  0  0  0  0  0  0  0  0  0  0  0
    2.5981    6.0085    0.0000 O   0  0  0  0  0  0  0  0  0  0  0  0
   10.5550   12.6510    0.0000 O   0  0  0  0  0  0  0  0  0  0  0  0
    1.7320    7.5085    0.0000 O   0  0  0  0  0  0  0  0  0  0  0  0
    7.4776    4.9750    0.0000 N   0  0  0  0  0  0  0  0  0  0  0  0
    8.3437    6.4750    0.0000 N   0  0  0  0  0  0  0  0  0  0  0  0
   10.0757    6.4750    0.0000 N   0  0  0  0  0  0  0  0  0  0  0  0
    9.2097    7.9750    0.0000 N   0  0  0  0  0  0  0  0  0  0  0  0
   14.4534    6.8817    0.0000 N   0  0  0  0  0  0  0  0  0  0  0  0
   15.1225    6.1385    0.0000 N   0  0  0  0  0  0  0  0  0  0  0  0
   15.0292    4.3590    0.0000 N   0  0  0  0  0  0  0  0  0  0  0  0
    6.6116    2.4750    0.0000 C   0  0  0  0  0  0  0  0  0  0  0  0
    5.7456    1.9750    0.0000 C   0  0  0  0  0  0  0  0  0  0  0  0
    7.4776    1.9750    0.0000 C   0  0  0  0  0  0  0  0  0  0  0  0
    6.6116    3.4750    0.0000 C   0  0  3  0  0  0  0  0  0  0  0  0
    5.7456    0.9749    0.0000 C   0  0  0  0  0  0  0  0  0  0  0  0
    7.4776    0.9749    0.0000 C   0  0  0  0  0  0  0  0  0  0  0  0
    6.6116    0.4749    0.0000 C   0  0  0  0  0  0  0  0  0  0  0  0
    7.4776    3.9750    0.0000 C   0  0  0  0  0  0  0  0  0  0  0  0
    5.7456    3.9750    0.0000 C   0  0  0  0  0  0  0  0  0  0  0  0
    8.3437    5.4750    0.0000 C   0  0  0  0  0  0  0  0  0  0  0  0
    9.2097    6.9750    0.0000 C   0  0  0  0  0  0  0  0  0  0  0  0
   10.9417    6.9750    0.0000 C   0  0  0  0  0  0  0  0  0  0  0  0
   11.8078    6.4750    0.0000 C   0  0  0  0  0  0  0  0  0  0  0  0
   12.6738    6.9750    0.0000 C   0  0  0  0  0  0  0  0  0  0  0  0
   13.5398    6.4750    0.0000 C   0  0  0  0  0  0  0  0  0  0  0  0
   14.6225    5.2725    0.0000 C   0  0  0  0  0  0  0  0  0  0  0  0
    9.6889   11.1510    0.0000 C   0  0  0  0  0  0  0  0  0  0  0  0
    0.8660    6.0085    0.0000 C   0  0  0  0  0  0  0  0  0  0  0  0
   10.5550   11.6510    0.0000 C   0  0  0  0  0  0  0  0  0  0  0  0
    1.7320    6.5085    0.0000 C   0  0  0  0  0  0  0  0  0  0  0  0
    7.1486    2.7849    0.0000 H   0  0  0  0  0  0  0  0  0  0  0  0
    5.5335    2.5576    0.0000 H   0  0  0  0  0  0  0  0  0  0  0  0
    5.1350    1.8673    0.0000 H   0  0  0  0  0  0  0  0  0  0  0  0
    8.0882    1.8673    0.0000 H   0  0  0  0  0  0  0  0  0  0  0  0
    7.6897    2.5576    0.0000 H   0  0  0  0  0  0  0  0  0  0  0  0
    6.6116    4.0950    0.0000 H   0  0  0  0  0  0  0  0  0  0  0  0
    5.1350    1.0826    0.0000 H   0  0  0  0  0  0  0  0  0  0  0  0
    5.5335    0.3923    0.0000 H   0  0  0  0  0  0  0  0  0  0  0  0
    7.6897    0.3923    0.0000 H   0  0  0  0  0  0  0  0  0  0  0  0
    8.0882    1.0826    0.0000 H   0  0  0  0  0  0  0  0  0  0  0  0
    6.2131    0.0000    0.0000 H   0  0  0  0  0  0  0  0  0  0  0  0
    7.0102    0.0000    0.0000 H   0  0  0  0  0  0  0  0  0  0  0  0
    7.6897    3.3923    0.0000 H   0  0  0  0  0  0  0  0  0  0  0  0
    8.0882    4.0826    0.0000 H   0  0  0  0  0  0  0  0  0  0  0  0
    6.0556    4.5119    0.0000 H   0  0  0  0  0  0  0  0  0  0  0  0
    5.2087    4.2850    0.0000 H   0  0  0  0  0  0  0  0  0  0  0  0
    5.4356    3.4380    0.0000 H   0  0  0  0  0  0  0  0  0  0  0  0
    6.9407    5.2850    0.0000 H   0  0  0  0  0  0  0  0  0  0  0  0
    7.8067    6.7850    0.0000 H   0  0  0  0  0  0  0  0  0  0  0  0
   11.3403    7.4499    0.0000 H   0  0  0  0  0  0  0  0  0  0  0  0
   10.5432    7.4499    0.0000 H   0  0  0  0  0  0  0  0  0  0  0  0
    9.7466    8.2850    0.0000 H   0  0  0  0  0  0  0  0  0  0  0  0
    8.6728    8.2850    0.0000 H   0  0  0  0  0  0  0  0  0  0  0  0
   11.4092    6.0000    0.0000 H   0  0  0  0  0  0  0  0  0  0  0  0
   12.2063    6.0000    0.0000 H   0  0  0  0  0  0  0  0  0  0  0  0
   13.0723    7.4499    0.0000 H   0  0  0  0  0  0  0  0  0  0  0  0
   12.2753    7.4499    0.0000 H   0  0  0  0  0  0  0  0  0  0  0  0
   15.6458    4.2942    0.0000 H   0  0  0  0  0  0  0  0  0  0  0  0
   14.6648    3.8574    0.0000 H   0  0  0  0  0  0  0  0  0  0  0  0
   11.9579   11.4610    0.0000 H   0  0  0  0  0  0  0  0  0  0  0  0
    3.1350    6.3185    0.0000 H   0  0  0  0  0  0  0  0  0  0  0  0
  1 34  1  0  0  0  0
  1 35  1  0  0  0  0
  2 36  1  0  0  0  0
  3 36  1  0  0  0  0
  4 36  1  0  0  0  0
  5 37  1  0  0  0  0
  6 37  1  0  0  0  0
  7 37  1  0  0  0  0
  8 29  2  0  0  0  0
  9 38  1  0  0  0  0
  9 69  1  0  0  0  0
 10 39  1  0  0  0  0
 10 70  1  0  0  0  0
 11 38  2  0  0  0  0
 12 39  2  0  0  0  0
 13 27  1  0  0  0  0
 13 29  1  0  0  0  0
 13 57  1  0  0  0  0
 14 29  1  0  0  0  0
 14 30  1  0  0  0  0
 14 58  1  0  0  0  0
 15 30  2  0  0  0  0
 15 31  1  0  0  0  0
 16 30  1  0  0  0  0
 16 61  1  0  0  0  0
 16 62  1  0  0  0  0
 17 18  1  0  0  0  0
 17 34  2  0  0  0  0
 18 35  2  0  0  0  0
 19 35  1  0  0  0  0
 19 67  1  0  0  0  0
 19 68  1  0  0  0  0
 20 21  1  0  0  0  0
 20 22  1  0  0  0  0
 20 23  1  0  0  0  0
 20 40  1  0  0  0  0
 21 24  1  0  0  0  0
 21 41  1  0  0  0  0
 21 42  1  0  0  0  0
 22 25  1  0  0  0  0
 22 43  1  0  0  0  0
 22 44  1  0  0  0  0
 23 27  1  0  0  0  0
 23 28  1  0  0  0  0
 23 45  1  0  0  0  0
 24 26  1  0  0  0  0
 24 46  1  0  0  0  0
 24 47  1  0  0  0  0
 25 26  1  0  0  0  0
 25 48  1  0  0  0  0
 25 49  1  0  0  0  0
 26 50  1  0  0  0  0
 26 51  1  0  0  0  0
 27 52  1  0  0  0  0
 27 53  1  0  0  0  0
 28 54  1  0  0  0  0
 28 55  1  0  0  0  0
 28 56  1  0  0  0  0
 31 32  1  0  0  0  0
 31 59  1  0  0  0  0
 31 60  1  0  0  0  0
 32 33  1  0  0  0  0
 32 63  1  0  0  0  0
 32 64  1  0  0  0  0
 33 34  1  0  0  0  0
 33 65  1  0  0  0  0
 33 66  1  0  0  0  0
 36 38  1  0  0  0  0
 37 39  1  0  0  0  0
M  END
> <PUBCHEM_COMPOUND_CID>
168295575

> <PUBCHEM_COMPOUND_CANONICALIZED>
1

> <PUBCHEM_CACTVS_COMPLEXITY>
526

> <PUBCHEM_CACTVS_HBOND_ACCEPTOR>
16

> <PUBCHEM_CACTVS_HBOND_DONOR>
6

> <PUBCHEM_CACTVS_ROTATABLE_BOND>
8

> <PUBCHEM_CACTVS_SUBSKEYS>
AAADceB7ucBAAAAAAAAAAAAAAAAAAWAAAAAwAAAAAAAAAAABgAAAHwQYCAAADQDBwhQDGALAAgguAACwPAAQAINAABEVAIA4AACAAAIggAAEAAAYHwIAAAEQgMAOgAAAAAAAAAAAAAAAAAAAAAAAAAAAAA==

> <PUBCHEM_IUPAC_OPENEYE_NAME>
1-[N'-[3-(5-amino-1,3,4-thiadiazol-2-yl)propyl]carbamimidoyl]-3-(2-cyclohexylpropyl)urea;2,2,2-trifluoroacetic acid

> <PUBCHEM_IUPAC_CAS_NAME>
1-[amino-[3-(5-amino-1,3,4-thiadiazol-2-yl)propylimino]methyl]-3-(2-cyclohexylpropyl)urea;2,2,2-trifluoroacetic acid

> <PUBCHEM_IUPAC_NAME_MARKUP>
1-[<I>N</I>&apos;-[3-(5-amino-1,3,4-thiadiazol-2-yl)propyl]carbamimidoyl]-3-(2-cyclohexylpropyl)urea;2,2,2-trifluoroacetic acid

> <PUBCHEM_IUPAC_NAME>
1-[N'-[3-(5-amino-1,3,4-thiadiazol-2-yl)propyl]carbamimidoyl]-3-(2-cyclohexylpropyl)urea;2,2,2-trifluoroacetic acid

> <PUBCHEM_IUPAC_SYSTEMATIC_NAME>
1-[N'-[3-(5-azanyl-1,3,4-thiadiazol-2-yl)propyl]carbamimidoyl]-3-(2-cyclohexylpropyl)urea;2,2,2-tris(fluoranyl)ethanoic acid

> <PUBCHEM_IUPAC_TRADITIONAL_NAME>
1-[N'-[3-(5-amino-1,3,4-thiadiazol-2-yl)propyl]amidino]-3-(2-cyclohexylpropyl)urea;2,2,2-trifluoroacetic acid

> <PUBCHEM_IUPAC_INCHI>
InChI=1S/C16H29N7OS.2C2HF3O2/c1-11(12-6-3-2-4-7-12)10-20-16(24)21-14(17)19-9-5-8-13-22-23-15(18)25-13;2*3-2(4,5)1(6)7/h11-12H,2-10H2,1H3,(H2,18,23)(H4,17,19,20,21,24);2*(H,6,7)

> <PUBCHEM_IUPAC_INCHIKEY>
JEOHHJMBZWYLOK-UHFFFAOYSA-N

> <PUBCHEM_EXACT_MASS>
595.20115726

> <PUBCHEM_MOLECULAR_FORMULA>
C20H31F6N7O5S

> <PUBCHEM_MOLECULAR_WEIGHT>
595.6

> <PUBCHEM_OPENEYE_CAN_SMILES>
CC(CNC(=O)NC(=NCCCC1=NN=C(S1)N)N)C2CCCCC2.C(=O)(C(F)(F)F)O.C(=O)(C(F)(F)F)O

> <PUBCHEM_OPENEYE_ISO_SMILES>
CC(CNC(=O)NC(=NCCCC1=NN=C(S1)N)N)C2CCCCC2.C(=O)(C(F)(F)F)O.C(=O)(C(F)(F)F)O

> <PUBCHEM_CACTVS_TPSA>
234

> <PUBCHEM_MONOISOTOPIC_WEIGHT>
595.20115726

> <PUBCHEM_TOTAL_CHARGE>
0

> <PUBCHEM_HEAVY_ATOM_COUNT>
39

> <PUBCHEM_ATOM_DEF_STEREO_COUNT>
0

> <PUBCHEM_ATOM_UDEF_STEREO_COUNT>
1

> <PUBCHEM_BOND_DEF_STEREO_COUNT>
0

> <PUBCHEM_BOND_UDEF_STEREO_COUNT>
0

> <PUBCHEM_ISOTOPIC_ATOM_COUNT>
0

> <PUBCHEM_COMPONENT_COUNT>
3

> <PUBCHEM_CACTVS_TAUTO_COUNT>
-1

> <PUBCHEM_COORDINATE_TYPE>
1
5
255

> <PUBCHEM_BONDANNOTATIONS>
1  34  8
1  35  8
17  18  8
17  34  8
18  35  8
23  28  3

$$$$
