168296541
  -OEChem-09292322452D

 56 58  0     0  0  0  0  0  0999 V2000
    4.3473    1.5000    0.0000 O   0  0  0  0  0  0  0  0  0  0  0  0
    6.9454    1.0000    0.0000 O   0  0  0  0  0  0  0  0  0  0  0  0
    5.2134    0.0000    0.0000 O   0  0  0  0  0  0  0  0  0  0  0  0
    6.0794    2.5000    0.0000 O   0  0  0  0  0  0  0  0  0  0  0  0
    5.7935    9.2367    0.0000 N   0  0  0  0  0  0  0  0  0  0  0  0
    7.7506    9.6492    0.0000 N   0  0  0  0  0  0  0  0  0  0  0  0
    3.2152    6.9232    0.0000 N   0  0  0  0  0  0  0  0  0  0  0  0
    3.2152    5.3138    0.0000 N   0  0  0  0  0  0  0  0  0  0  0  0
    6.4614    8.4924    0.0000 C   0  0  0  0  0  0  0  0  0  0  0  0
    6.1042   10.1873    0.0000 C   0  0  0  0  0  0  0  0  0  0  0  0
    7.4399    8.6986    0.0000 C   0  0  0  0  0  0  0  0  0  0  0  0
    7.0827   10.3935    0.0000 C   0  0  0  0  0  0  0  0  0  0  0  0
    4.8150    9.0305    0.0000 C   0  0  0  0  0  0  0  0  0  0  0  0
    4.5044    8.0800    0.0000 C   0  0  0  0  0  0  0  0  0  0  0  0
    3.5259    7.8738    0.0000 C   0  0  0  0  0  0  0  0  0  0  0  0
    8.7291    9.8554    0.0000 C   0  0  0  0  0  0  0  0  0  0  0  0
    9.0397   10.8059    0.0000 C   0  0  0  0  0  0  0  0  0  0  0  0
    9.3969    9.1111    0.0000 C   0  0  0  0  0  0  0  0  0  0  0  0
    2.2690    6.6185    0.0000 C   0  0  0  0  0  0  0  0  0  0  0  0
    3.7988    6.1185    0.0000 C   0  0  0  0  0  0  0  0  0  0  0  0
    2.2690    5.6185    0.0000 C   0  0  0  0  0  0  0  0  0  0  0  0
   10.0182   11.0121    0.0000 C   0  0  0  0  0  0  0  0  0  0  0  0
   10.3754    9.3173    0.0000 C   0  0  0  0  0  0  0  0  0  0  0  0
    1.4030    7.1185    0.0000 C   0  0  0  0  0  0  0  0  0  0  0  0
   10.6861   10.2678    0.0000 C   0  0  0  0  0  0  0  0  0  0  0  0
    1.4030    5.1185    0.0000 C   0  0  0  0  0  0  0  0  0  0  0  0
    0.5369    6.6185    0.0000 C   0  0  0  0  0  0  0  0  0  0  0  0
    0.5369    5.6185    0.0000 C   0  0  0  0  0  0  0  0  0  0  0  0
    5.2134    1.0000    0.0000 C   0  0  0  0  0  0  0  0  0  0  0  0
    6.0794    1.5000    0.0000 C   0  0  0  0  0  0  0  0  0  0  0  0
    5.9350    8.1648    0.0000 H   0  0  0  0  0  0  0  0  0  0  0  0
    6.6926    7.9172    0.0000 H   0  0  0  0  0  0  0  0  0  0  0  0
    6.0836   10.8069    0.0000 H   0  0  0  0  0  0  0  0  0  0  0  0
    5.4904   10.2746    0.0000 H   0  0  0  0  0  0  0  0  0  0  0  0
    7.4605    8.0790    0.0000 H   0  0  0  0  0  0  0  0  0  0  0  0
    8.0537    8.6113    0.0000 H   0  0  0  0  0  0  0  0  0  0  0  0
    7.6091   10.7211    0.0000 H   0  0  0  0  0  0  0  0  0  0  0  0
    6.8514   10.9687    0.0000 H   0  0  0  0  0  0  0  0  0  0  0  0
    4.7945    9.6502    0.0000 H   0  0  0  0  0  0  0  0  0  0  0  0
    4.2012    9.1179    0.0000 H   0  0  0  0  0  0  0  0  0  0  0  0
    4.5249    7.4603    0.0000 H   0  0  0  0  0  0  0  0  0  0  0  0
    5.1182    7.9926    0.0000 H   0  0  0  0  0  0  0  0  0  0  0  0
    3.5053    8.4934    0.0000 H   0  0  0  0  0  0  0  0  0  0  0  0
    2.9120    7.9611    0.0000 H   0  0  0  0  0  0  0  0  0  0  0  0
    8.6257   11.2674    0.0000 H   0  0  0  0  0  0  0  0  0  0  0  0
    9.2043    8.5218    0.0000 H   0  0  0  0  0  0  0  0  0  0  0  0
    4.4188    6.1185    0.0000 H   0  0  0  0  0  0  0  0  0  0  0  0
   10.2108   11.6014    0.0000 H   0  0  0  0  0  0  0  0  0  0  0  0
   10.7895    8.8558    0.0000 H   0  0  0  0  0  0  0  0  0  0  0  0
    1.4030    7.7385    0.0000 H   0  0  0  0  0  0  0  0  0  0  0  0
   11.2927   10.3957    0.0000 H   0  0  0  0  0  0  0  0  0  0  0  0
    1.4030    4.4985    0.0000 H   0  0  0  0  0  0  0  0  0  0  0  0
    0.0000    6.9285    0.0000 H   0  0  0  0  0  0  0  0  0  0  0  0
    0.0000    5.3085    0.0000 H   0  0  0  0  0  0  0  0  0  0  0  0
    3.8104    1.1900    0.0000 H   0  0  0  0  0  0  0  0  0  0  0  0
    7.4824    1.3100    0.0000 H   0  0  0  0  0  0  0  0  0  0  0  0
  1 29  1  0  0  0  0
  1 55  1  0  0  0  0
  2 30  1  0  0  0  0
  2 56  1  0  0  0  0
  3 29  2  0  0  0  0
  4 30  2  0  0  0  0
  5  9  1  0  0  0  0
  5 10  1  0  0  0  0
  5 13  1  0  0  0  0
  6 11  1  0  0  0  0
  6 12  1  0  0  0  0
  6 16  1  0  0  0  0
  7 15  1  0  0  0  0
  7 19  1  0  0  0  0
  7 20  1  0  0  0  0
  8 20  2  0  0  0  0
  8 21  1  0  0  0  0
  9 11  1  0  0  0  0
  9 31  1  0  0  0  0
  9 32  1  0  0  0  0
 10 12  1  0  0  0  0
 10 33  1  0  0  0  0
 10 34  1  0  0  0  0
 11 35  1  0  0  0  0
 11 36  1  0  0  0  0
 12 37  1  0  0  0  0
 12 38  1  0  0  0  0
 13 14  1  0  0  0  0
 13 39  1  0  0  0  0
 13 40  1  0  0  0  0
 14 15  1  0  0  0  0
 14 41  1  0  0  0  0
 14 42  1  0  0  0  0
 15 43  1  0  0  0  0
 15 44  1  0  0  0  0
 16 17  2  0  0  0  0
 16 18  1  0  0  0  0
 17 22  1  0  0  0  0
 17 45  1  0  0  0  0
 18 23  2  0  0  0  0
 18 46  1  0  0  0  0
 19 21  1  0  0  0  0
 19 24  2  0  0  0  0
 20 47  1  0  0  0  0
 21 26  2  0  0  0  0
 22 25  2  0  0  0  0
 22 48  1  0  0  0  0
 23 25  1  0  0  0  0
 23 49  1  0  0  0  0
 24 27  1  0  0  0  0
 24 50  1  0  0  0  0
 25 51  1  0  0  0  0
 26 28  1  0  0  0  0
 26 52  1  0  0  0  0
 27 28  2  0  0  0  0
 27 53  1  0  0  0  0
 28 54  1  0  0  0  0
 29 30  1  0  0  0  0
M  END
> <PUBCHEM_COMPOUND_CID>
168296541

> <PUBCHEM_COMPOUND_CANONICALIZED>
1

> <PUBCHEM_CACTVS_COMPLEXITY>
445

> <PUBCHEM_CACTVS_HBOND_ACCEPTOR>
7

> <PUBCHEM_CACTVS_HBOND_DONOR>
2

> <PUBCHEM_CACTVS_ROTATABLE_BOND>
6

> <PUBCHEM_CACTVS_SUBSKEYS>
AAADceB7uAAAAAAAAAAAAAAAAAAAAWAAAAA8YIAAAAAAAFgB9AAAHgAACAAACAjBlgQ12LcMEgCoASTzbAKCgC0xEqAJ2CB4dJiJaKLA2ZGUIAhogALJyCcQAAAAAAAAAAAAACAAAAAAAAAAQAAAAAAAAA==

> <PUBCHEM_IUPAC_OPENEYE_NAME>
oxalic acid;1-[3-(4-phenylpiperazin-1-yl)propyl]benzimidazole

> <PUBCHEM_IUPAC_CAS_NAME>
oxalic acid;1-[3-(4-phenyl-1-piperazinyl)propyl]benzimidazole

> <PUBCHEM_IUPAC_NAME_MARKUP>
oxalic acid;1-[3-(4-phenylpiperazin-1-yl)propyl]benzimidazole

> <PUBCHEM_IUPAC_NAME>
oxalic acid;1-[3-(4-phenylpiperazin-1-yl)propyl]benzimidazole

> <PUBCHEM_IUPAC_SYSTEMATIC_NAME>
ethanedioic acid;1-[3-(4-phenylpiperazin-1-yl)propyl]benzimidazole

> <PUBCHEM_IUPAC_TRADITIONAL_NAME>
oxalic acid;1-[3-(4-phenylpiperazino)propyl]benzimidazole

> <PUBCHEM_IUPAC_INCHI>
InChI=1S/C20H24N4.C2H2O4/c1-2-7-18(8-3-1)23-15-13-22(14-16-23)11-6-12-24-17-21-19-9-4-5-10-20(19)24;3-1(4)2(5)6/h1-5,7-10,17H,6,11-16H2;(H,3,4)(H,5,6)

> <PUBCHEM_IUPAC_INCHIKEY>
CQYZWWNFYPIWGY-UHFFFAOYSA-N

> <PUBCHEM_EXACT_MASS>
410.19540532

> <PUBCHEM_MOLECULAR_FORMULA>
C22H26N4O4

> <PUBCHEM_MOLECULAR_WEIGHT>
410.5

> <PUBCHEM_OPENEYE_CAN_SMILES>
C1CN(CCN1CCCN2C=NC3=CC=CC=C32)C4=CC=CC=C4.C(=O)(C(=O)O)O

> <PUBCHEM_OPENEYE_ISO_SMILES>
C1CN(CCN1CCCN2C=NC3=CC=CC=C32)C4=CC=CC=C4.C(=O)(C(=O)O)O

> <PUBCHEM_CACTVS_TPSA>
98.9

> <PUBCHEM_MONOISOTOPIC_WEIGHT>
410.19540532

> <PUBCHEM_TOTAL_CHARGE>
0

> <PUBCHEM_HEAVY_ATOM_COUNT>
30

> <PUBCHEM_ATOM_DEF_STEREO_COUNT>
0

> <PUBCHEM_ATOM_UDEF_STEREO_COUNT>
0

> <PUBCHEM_BOND_DEF_STEREO_COUNT>
0

> <PUBCHEM_BOND_UDEF_STEREO_COUNT>
0

> <PUBCHEM_ISOTOPIC_ATOM_COUNT>
0

> <PUBCHEM_COMPONENT_COUNT>
2

> <PUBCHEM_CACTVS_TAUTO_COUNT>
-1

> <PUBCHEM_COORDINATE_TYPE>
1
5
255

> <PUBCHEM_BONDANNOTATIONS>
16  17  8
16  18  8
17  22  8
18  23  8
19  21  8
19  24  8
21  26  8
22  25  8
23  25  8
24  27  8
26  28  8
27  28  8
7  19  8
7  20  8
8  20  8
8  21  8

$$$$
