10640530
  -OEChem-09292322142D

 46 49  0     1  0  0  0  0  0999 V2000
    9.8679   -1.2726    0.0000 O   0  0  0  0  0  0  0  0  0  0  0  0
    9.0019   -2.7726    0.0000 O   0  0  0  0  0  0  0  0  0  0  0  0
   11.6539    1.7726    0.0000 O   0  0  0  0  0  0  0  0  0  0  0  0
    6.3359   -1.2934    0.0000 N   0  0  3  0  0  0  0  0  0  0  0  0
    6.3359   -0.2517    0.0000 C   0  0  0  0  0  0  0  0  0  0  0  0
    7.2419    0.2621    0.0000 C   0  0  0  0  0  0  0  0  0  0  0  0
    7.2419   -1.8072    0.0000 C   0  0  0  0  0  0  0  0  0  0  0  0
    8.1359   -0.2725    0.0000 C   0  0  0  0  0  0  0  0  0  0  0  0
    8.1359   -1.2726    0.0000 C   0  0  0  0  0  0  0  0  0  0  0  0
    5.4718   -1.7967    0.0000 C   0  0  0  0  0  0  0  0  0  0  0  0
    9.0019    0.2275    0.0000 C   0  0  0  0  0  0  0  0  0  0  0  0
    9.0019   -1.7726    0.0000 C   0  0  0  0  0  0  0  0  0  0  0  0
    9.8679   -0.2725    0.0000 C   0  0  0  0  0  0  0  0  0  0  0  0
    4.6038   -1.3000    0.0000 C   0  0  0  0  0  0  0  0  0  0  0  0
    8.9858    1.2690    0.0000 C   0  0  0  0  0  0  0  0  0  0  0  0
   10.7779    0.2343    0.0000 C   0  0  0  0  0  0  0  0  0  0  0  0
    3.7398   -1.8034    0.0000 C   0  0  0  0  0  0  0  0  0  0  0  0
    4.6000   -0.3000    0.0000 C   0  0  0  0  0  0  0  0  0  0  0  0
    9.8839    1.7967    0.0000 C   0  0  0  0  0  0  0  0  0  0  0  0
   10.7860    1.2759    0.0000 C   0  0  0  0  0  0  0  0  0  0  0  0
    2.8718   -1.3067    0.0000 C   0  0  0  0  0  0  0  0  0  0  0  0
    3.7320    0.1966    0.0000 C   0  0  0  0  0  0  0  0  0  0  0  0
    2.8680   -0.3067    0.0000 C   0  0  0  0  0  0  0  0  0  0  0  0
    2.0000    0.1899    0.0000 C   0  0  0  0  0  0  0  0  0  0  0  0
   11.6578    2.7726    0.0000 C   0  0  0  0  0  0  0  0  0  0  0  0
    6.1268    0.3320    0.0000 H   0  0  0  0  0  0  0  0  0  0  0  0
    5.7250   -0.3578    0.0000 H   0  0  0  0  0  0  0  0  0  0  0  0
    7.6465    0.7319    0.0000 H   0  0  0  0  0  0  0  0  0  0  0  0
    6.8483    0.7411    0.0000 H   0  0  0  0  0  0  0  0  0  0  0  0
    6.8483   -2.2862    0.0000 H   0  0  0  0  0  0  0  0  0  0  0  0
    7.6465   -2.2770    0.0000 H   0  0  0  0  0  0  0  0  0  0  0  0
    5.0751   -2.2732    0.0000 H   0  0  0  0  0  0  0  0  0  0  0  0
    5.8721   -2.2701    0.0000 H   0  0  0  0  0  0  0  0  0  0  0  0
    8.4454    1.5727    0.0000 H   0  0  0  0  0  0  0  0  0  0  0  0
   11.3113   -0.0819    0.0000 H   0  0  0  0  0  0  0  0  0  0  0  0
    3.7421   -2.4234    0.0000 H   0  0  0  0  0  0  0  0  0  0  0  0
    5.1357    0.0120    0.0000 H   0  0  0  0  0  0  0  0  0  0  0  0
    9.8815    2.4167    0.0000 H   0  0  0  0  0  0  0  0  0  0  0  0
    2.3361   -1.6188    0.0000 H   0  0  0  0  0  0  0  0  0  0  0  0
    3.7296    0.8166    0.0000 H   0  0  0  0  0  0  0  0  0  0  0  0
    2.3079    0.7281    0.0000 H   0  0  0  0  0  0  0  0  0  0  0  0
    1.4619    0.4979    0.0000 H   0  0  0  0  0  0  0  0  0  0  0  0
    1.6921   -0.3482    0.0000 H   0  0  0  0  0  0  0  0  0  0  0  0
   12.2778    2.7702    0.0000 H   0  0  0  0  0  0  0  0  0  0  0  0
   11.6602    3.3925    0.0000 H   0  0  0  0  0  0  0  0  0  0  0  0
   11.0378    2.7749    0.0000 H   0  0  0  0  0  0  0  0  0  0  0  0
  1 12  1  0  0  0  0
  1 13  1  0  0  0  0
  2 12  2  0  0  0  0
  3 20  1  0  0  0  0
  3 25  1  0  0  0  0
  4  5  1  0  0  0  0
  4  7  1  0  0  0  0
  4 10  1  0  0  0  0
  5  6  1  0  0  0  0
  5 26  1  0  0  0  0
  5 27  1  0  0  0  0
  6  8  1  0  0  0  0
  6 28  1  0  0  0  0
  6 29  1  0  0  0  0
  7  9  1  0  0  0  0
  7 30  1  0  0  0  0
  7 31  1  0  0  0  0
  8  9  2  0  0  0  0
  8 11  1  0  0  0  0
  9 12  1  0  0  0  0
 10 14  1  0  0  0  0
 10 32  1  0  0  0  0
 10 33  1  0  0  0  0
 11 13  2  0  0  0  0
 11 15  1  0  0  0  0
 13 16  1  0  0  0  0
 14 17  2  0  0  0  0
 14 18  1  0  0  0  0
 15 19  2  0  0  0  0
 15 34  1  0  0  0  0
 16 20  2  0  0  0  0
 16 35  1  0  0  0  0
 17 21  1  0  0  0  0
 17 36  1  0  0  0  0
 18 22  2  0  0  0  0
 18 37  1  0  0  0  0
 19 20  1  0  0  0  0
 19 38  1  0  0  0  0
 21 23  2  0  0  0  0
 21 39  1  0  0  0  0
 22 23  1  0  0  0  0
 22 40  1  0  0  0  0
 23 24  1  0  0  0  0
 24 41  1  0  0  0  0
 24 42  1  0  0  0  0
 24 43  1  0  0  0  0
 25 44  1  0  0  0  0
 25 45  1  0  0  0  0
 25 46  1  0  0  0  0
M  END
> <PUBCHEM_COMPOUND_CID>
10640530

> <PUBCHEM_COMPOUND_CANONICALIZED>
1

> <PUBCHEM_CACTVS_COMPLEXITY>
535

> <PUBCHEM_CACTVS_HBOND_ACCEPTOR>
4

> <PUBCHEM_CACTVS_HBOND_DONOR>
0

> <PUBCHEM_CACTVS_ROTATABLE_BOND>
3

> <PUBCHEM_CACTVS_SUBSKEYS>
AAADceB6MAAAAAAAAAAAAAAAAAAAAAAAAAAwYIEAAAAAAACxQAAAHgAAAAAADATBmAYyDoMABACIAiDSCACCCAAgIAAIiAEODMgMJyqEsRuGOijnwBWIqQeQ8K4OYAAACAAIAADAAAAQABAAAAAAAAAAAA==

> <PUBCHEM_IUPAC_OPENEYE_NAME>
8-methoxy-3-(p-tolylmethyl)-2,4-dihydro-1H-chromeno[3,4-c]pyridin-5-one

> <PUBCHEM_IUPAC_CAS_NAME>
8-methoxy-3-[(4-methylphenyl)methyl]-2,4-dihydro-1H-[1]benzopyrano[3,4-c]pyridin-5-one

> <PUBCHEM_IUPAC_NAME_MARKUP>
8-methoxy-3-[(4-methylphenyl)methyl]-2,4-dihydro-1<I>H</I>-chromeno[3,4-c]pyridin-5-one

> <PUBCHEM_IUPAC_NAME>
8-methoxy-3-[(4-methylphenyl)methyl]-2,4-dihydro-1H-chromeno[3,4-c]pyridin-5-one

> <PUBCHEM_IUPAC_SYSTEMATIC_NAME>
8-methoxy-3-[(4-methylphenyl)methyl]-2,4-dihydro-1H-chromeno[3,4-c]pyridin-5-one

> <PUBCHEM_IUPAC_TRADITIONAL_NAME>
8-methoxy-3-(4-methylbenzyl)-2,4-dihydro-1H-chromeno[3,4-c]pyridin-5-one

> <PUBCHEM_IUPAC_INCHI>
InChI=1S/C21H21NO3/c1-14-3-5-15(6-4-14)12-22-10-9-17-18-8-7-16(24-2)11-20(18)25-21(23)19(17)13-22/h3-8,11H,9-10,12-13H2,1-2H3

> <PUBCHEM_IUPAC_INCHIKEY>
GCSJTLWMFLOWBK-UHFFFAOYSA-N

> <PUBCHEM_XLOGP3_AA>
3.2

> <PUBCHEM_EXACT_MASS>
335.15214353

> <PUBCHEM_MOLECULAR_FORMULA>
C21H21NO3

> <PUBCHEM_MOLECULAR_WEIGHT>
335.4

> <PUBCHEM_OPENEYE_CAN_SMILES>
CC1=CC=C(C=C1)CN2CCC3=C(C2)C(=O)OC4=C3C=CC(=C4)OC

> <PUBCHEM_OPENEYE_ISO_SMILES>
CC1=CC=C(C=C1)CN2CCC3=C(C2)C(=O)OC4=C3C=CC(=C4)OC

> <PUBCHEM_CACTVS_TPSA>
38.8

> <PUBCHEM_MONOISOTOPIC_WEIGHT>
335.15214353

> <PUBCHEM_TOTAL_CHARGE>
0

> <PUBCHEM_HEAVY_ATOM_COUNT>
25

> <PUBCHEM_ATOM_DEF_STEREO_COUNT>
0

> <PUBCHEM_ATOM_UDEF_STEREO_COUNT>
0

> <PUBCHEM_BOND_DEF_STEREO_COUNT>
0

> <PUBCHEM_BOND_UDEF_STEREO_COUNT>
0

> <PUBCHEM_ISOTOPIC_ATOM_COUNT>
0

> <PUBCHEM_COMPONENT_COUNT>
1

> <PUBCHEM_CACTVS_TAUTO_COUNT>
-1

> <PUBCHEM_COORDINATE_TYPE>
1
5
255

> <PUBCHEM_BONDANNOTATIONS>
1  12  8
1  13  8
11  13  8
11  15  8
13  16  8
14  17  8
14  18  8
15  19  8
16  20  8
17  21  8
18  22  8
19  20  8
21  23  8
22  23  8
8  11  8
8  9  8
9  12  8

$$$$
