49836026
  -OEChem-09292322312D

 59 63  0     1  0  0  0  0  0999 V2000
    7.0259    1.7500    0.0000 S   0  0  0  0  0  0  0  0  0  0  0  0
   12.2221   -3.2500    0.0000 F   0  0  0  0  0  0  0  0  0  0  0  0
   13.2221   -2.2500    0.0000 F   0  0  0  0  0  0  0  0  0  0  0  0
   11.2221   -2.2500    0.0000 F   0  0  0  0  0  0  0  0  0  0  0  0
    3.0827    1.8842    0.0000 O   0  0  0  0  0  0  0  0  0  0  0  0
   10.4900    1.7500    0.0000 N   0  0  3  0  0  0  0  0  0  0  0  0
    5.2463    1.6567    0.0000 N   0  0  0  0  0  0  0  0  0  0  0  0
    6.0554    0.2555    0.0000 N   0  0  0  0  0  0  0  0  0  0  0  0
    5.0772    0.0476    0.0000 N   0  0  0  0  0  0  0  0  0  0  0  0
    2.0000    0.6817    0.0000 N   0  0  0  0  0  0  0  0  0  0  0  0
   12.2221    1.7500    0.0000 C   0  0  3  0  0  0  0  0  0  0  0  0
   12.2221    2.7500    0.0000 C   0  0  3  0  0  0  0  0  0  0  0  0
   13.0886    2.2500    0.0000 C   0  0  0  0  0  0  0  0  0  0  0  0
   11.3560    1.2500    0.0000 C   0  0  0  0  0  0  0  0  0  0  0  0
   11.3560    3.2500    0.0000 C   0  0  0  0  0  0  0  0  0  0  0  0
   12.2221    0.7500    0.0000 C   0  0  0  0  0  0  0  0  0  0  0  0
   10.4900    2.7500    0.0000 C   0  0  0  0  0  0  0  0  0  0  0  0
    9.6240    1.2500    0.0000 C   0  0  0  0  0  0  0  0  0  0  0  0
   11.3560    0.2500    0.0000 C   0  0  0  0  0  0  0  0  0  0  0  0
   13.0881    0.2500    0.0000 C   0  0  0  0  0  0  0  0  0  0  0  0
    8.7579    1.7500    0.0000 C   0  0  0  0  0  0  0  0  0  0  0  0
   11.3560   -0.7500    0.0000 C   0  0  0  0  0  0  0  0  0  0  0  0
   13.0881   -0.7500    0.0000 C   0  0  0  0  0  0  0  0  0  0  0  0
   12.2221   -1.2500    0.0000 C   0  0  0  0  0  0  0  0  0  0  0  0
    7.8919    1.2500    0.0000 C   0  0  0  0  0  0  0  0  0  0  0  0
   12.2221   -2.2500    0.0000 C   0  0  0  0  0  0  0  0  0  0  0  0
    6.1599    1.2500    0.0000 C   0  0  0  0  0  0  0  0  0  0  0  0
    4.5772    0.9136    0.0000 C   0  0  0  0  0  0  0  0  0  0  0  0
    5.0384    2.6349    0.0000 C   0  0  0  0  0  0  0  0  0  0  0  0
    3.5827    1.0181    0.0000 C   0  0  0  0  0  0  0  0  0  0  0  0
    2.9136    0.2750    0.0000 C   0  0  0  0  0  0  0  0  0  0  0  0
    3.1215   -0.7032    0.0000 C   0  0  0  0  0  0  0  0  0  0  0  0
    2.1045    1.6762    0.0000 C   0  0  0  0  0  0  0  0  0  0  0  0
   12.5320    3.2870    0.0000 H   0  0  0  0  0  0  0  0  0  0  0  0
   13.4871    1.7750    0.0000 H   0  0  0  0  0  0  0  0  0  0  0  0
   13.4871    2.7250    0.0000 H   0  0  0  0  0  0  0  0  0  0  0  0
   10.9575    0.7751    0.0000 H   0  0  0  0  0  0  0  0  0  0  0  0
   11.7546    0.7751    0.0000 H   0  0  0  0  0  0  0  0  0  0  0  0
   11.7546    3.7250    0.0000 H   0  0  0  0  0  0  0  0  0  0  0  0
   10.9575    3.7250    0.0000 H   0  0  0  0  0  0  0  0  0  0  0  0
   10.2779    3.3326    0.0000 H   0  0  0  0  0  0  0  0  0  0  0  0
    9.8794    2.6423    0.0000 H   0  0  0  0  0  0  0  0  0  0  0  0
    9.2254    0.7751    0.0000 H   0  0  0  0  0  0  0  0  0  0  0  0
   10.0225    0.7751    0.0000 H   0  0  0  0  0  0  0  0  0  0  0  0
   10.8191    0.5600    0.0000 H   0  0  0  0  0  0  0  0  0  0  0  0
   13.6250    0.5600    0.0000 H   0  0  0  0  0  0  0  0  0  0  0  0
    9.1565    2.2250    0.0000 H   0  0  0  0  0  0  0  0  0  0  0  0
    8.3594    2.2250    0.0000 H   0  0  0  0  0  0  0  0  0  0  0  0
   10.8191   -1.0600    0.0000 H   0  0  0  0  0  0  0  0  0  0  0  0
   13.6250   -1.0600    0.0000 H   0  0  0  0  0  0  0  0  0  0  0  0
    7.4934    0.7751    0.0000 H   0  0  0  0  0  0  0  0  0  0  0  0
    8.2904    0.7751    0.0000 H   0  0  0  0  0  0  0  0  0  0  0  0
    5.6449    2.7638    0.0000 H   0  0  0  0  0  0  0  0  0  0  0  0
    4.9095    3.2413    0.0000 H   0  0  0  0  0  0  0  0  0  0  0  0
    4.4320    2.5060    0.0000 H   0  0  0  0  0  0  0  0  0  0  0  0
    2.5150   -0.8321    0.0000 H   0  0  0  0  0  0  0  0  0  0  0  0
    3.2504   -1.3096    0.0000 H   0  0  0  0  0  0  0  0  0  0  0  0
    3.7279   -0.5743    0.0000 H   0  0  0  0  0  0  0  0  0  0  0  0
    1.6438    2.0911    0.0000 H   0  0  0  0  0  0  0  0  0  0  0  0
  1 25  1  0  0  0  0
  1 27  1  0  0  0  0
  2 26  1  0  0  0  0
  3 26  1  0  0  0  0
  4 26  1  0  0  0  0
  5 30  1  0  0  0  0
  5 33  1  0  0  0  0
  6 14  1  0  0  0  0
  6 17  1  0  0  0  0
  6 18  1  0  0  0  0
  7 27  1  0  0  0  0
  7 28  1  0  0  0  0
  7 29  1  0  0  0  0
  8  9  1  0  0  0  0
  8 27  2  0  0  0  0
  9 28  2  0  0  0  0
 10 31  1  0  0  0  0
 10 33  2  0  0  0  0
 11 12  1  0  0  0  0
 11 13  1  0  0  0  0
 11 14  1  0  0  0  0
 11 16  1  0  0  0  0
 12 13  1  0  0  0  0
 12 15  1  0  0  0  0
 12 34  1  0  0  0  0
 13 35  1  0  0  0  0
 13 36  1  0  0  0  0
 14 37  1  0  0  0  0
 14 38  1  0  0  0  0
 15 17  1  0  0  0  0
 15 39  1  0  0  0  0
 15 40  1  0  0  0  0
 16 19  2  0  0  0  0
 16 20  1  0  0  0  0
 17 41  1  0  0  0  0
 17 42  1  0  0  0  0
 18 21  1  0  0  0  0
 18 43  1  0  0  0  0
 18 44  1  0  0  0  0
 19 22  1  0  0  0  0
 19 45  1  0  0  0  0
 20 23  2  0  0  0  0
 20 46  1  0  0  0  0
 21 25  1  0  0  0  0
 21 47  1  0  0  0  0
 21 48  1  0  0  0  0
 22 24  2  0  0  0  0
 22 49  1  0  0  0  0
 23 24  1  0  0  0  0
 23 50  1  0  0  0  0
 24 26  1  0  0  0  0
 25 51  1  0  0  0  0
 25 52  1  0  0  0  0
 28 30  1  0  0  0  0
 29 53  1  0  0  0  0
 29 54  1  0  0  0  0
 29 55  1  0  0  0  0
 30 31  2  0  0  0  0
 31 32  1  0  0  0  0
 32 56  1  0  0  0  0
 32 57  1  0  0  0  0
 32 58  1  0  0  0  0
 33 59  1  0  0  0  0
M  END
> <PUBCHEM_COMPOUND_CID>
49836026

> <PUBCHEM_COMPOUND_CANONICALIZED>
1

> <PUBCHEM_CACTVS_COMPLEXITY>
679

> <PUBCHEM_CACTVS_HBOND_ACCEPTOR>
9

> <PUBCHEM_CACTVS_HBOND_DONOR>
0

> <PUBCHEM_CACTVS_ROTATABLE_BOND>
7

> <PUBCHEM_CACTVS_SUBSKEYS>
AAADceB7oYBAAAAAAAAAAAAAGAAAAWLAAAA8QAAABYAAAAAB8AAAHwQIAAAADwzF3xa3lJcMFEiqA6Zz9ASS2Ct7YLAd2CG9RJiOKCLk2TGNIChgjALYiAcQgMAPwAAAAAAAAACAAAAAAAAAAAAAAAAAAA==

> <PUBCHEM_IUPAC_OPENEYE_NAME>
4-methyl-5-[4-methyl-5-[3-[1-[4-(trifluoromethyl)phenyl]-3-azabicyclo[4.1.0]heptan-3-yl]propylsulfanyl]-1,2,4-triazol-3-yl]oxazole

> <PUBCHEM_IUPAC_CAS_NAME>
4-methyl-5-[4-methyl-5-[3-[1-[4-(trifluoromethyl)phenyl]-3-azabicyclo[4.1.0]heptan-3-yl]propylthio]-1,2,4-triazol-3-yl]oxazole

> <PUBCHEM_IUPAC_NAME_MARKUP>
4-methyl-5-[4-methyl-5-[3-[1-[4-(trifluoromethyl)phenyl]-3-azabicyclo[4.1.0]heptan-3-yl]propylsulfanyl]-1,2,4-triazol-3-yl]-1,3-oxazole

> <PUBCHEM_IUPAC_NAME>
4-methyl-5-[4-methyl-5-[3-[1-[4-(trifluoromethyl)phenyl]-3-azabicyclo[4.1.0]heptan-3-yl]propylsulfanyl]-1,2,4-triazol-3-yl]-1,3-oxazole

> <PUBCHEM_IUPAC_SYSTEMATIC_NAME>
4-methyl-5-[4-methyl-5-[3-[1-[4-(trifluoromethyl)phenyl]-3-azabicyclo[4.1.0]heptan-3-yl]propylsulfanyl]-1,2,4-triazol-3-yl]-1,3-oxazole

> <PUBCHEM_IUPAC_TRADITIONAL_NAME>
4-methyl-5-[4-methyl-5-[3-[1-[4-(trifluoromethyl)phenyl]-3-azabicyclo[4.1.0]heptan-3-yl]propylthio]-1,2,4-triazol-3-yl]oxazole

> <PUBCHEM_IUPAC_INCHI>
InChI=1S/C23H26F3N5OS/c1-15-19(32-14-27-15)20-28-29-21(30(20)2)33-11-3-9-31-10-8-18-12-22(18,13-31)16-4-6-17(7-5-16)23(24,25)26/h4-7,14,18H,3,8-13H2,1-2H3

> <PUBCHEM_IUPAC_INCHIKEY>
ZCFZWLXSHRXGLG-UHFFFAOYSA-N

> <PUBCHEM_XLOGP3_AA>
4.3

> <PUBCHEM_EXACT_MASS>
477.18101613

> <PUBCHEM_MOLECULAR_FORMULA>
C23H26F3N5OS

> <PUBCHEM_MOLECULAR_WEIGHT>
477.5

> <PUBCHEM_OPENEYE_CAN_SMILES>
CC1=C(OC=N1)C2=NN=C(N2C)SCCCN3CCC4CC4(C3)C5=CC=C(C=C5)C(F)(F)F

> <PUBCHEM_OPENEYE_ISO_SMILES>
CC1=C(OC=N1)C2=NN=C(N2C)SCCCN3CCC4CC4(C3)C5=CC=C(C=C5)C(F)(F)F

> <PUBCHEM_CACTVS_TPSA>
85.3

> <PUBCHEM_MONOISOTOPIC_WEIGHT>
477.18101613

> <PUBCHEM_TOTAL_CHARGE>
0

> <PUBCHEM_HEAVY_ATOM_COUNT>
33

> <PUBCHEM_ATOM_DEF_STEREO_COUNT>
0

> <PUBCHEM_ATOM_UDEF_STEREO_COUNT>
2

> <PUBCHEM_BOND_DEF_STEREO_COUNT>
0

> <PUBCHEM_BOND_UDEF_STEREO_COUNT>
0

> <PUBCHEM_ISOTOPIC_ATOM_COUNT>
0

> <PUBCHEM_COMPONENT_COUNT>
1

> <PUBCHEM_CACTVS_TAUTO_COUNT>
-1

> <PUBCHEM_COORDINATE_TYPE>
1
5
255

> <PUBCHEM_BONDANNOTATIONS>
10  31  8
10  33  8
11  16  3
12  15  3
16  19  8
16  20  8
19  22  8
20  23  8
22  24  8
23  24  8
30  31  8
5  30  8
5  33  8
7  27  8
7  28  8
8  27  8
8  9  8
9  28  8

$$$$
