168292411
  -OEChem-09292322442D

 65 69  0     0  0  0  0  0  0999 V2000
   11.1241    3.1035    0.0000 N   0  0  0  0  0  0  0  0  0  0  0  0
   13.0811    3.5160    0.0000 N   0  0  0  0  0  0  0  0  0  0  0  0
    8.8564    1.7406    0.0000 N   0  0  0  0  0  0  0  0  0  0  0  0
    4.6783   -4.2896    0.0000 N   0  0  0  0  0  0  0  0  0  0  0  0
    6.2781   -0.5729    0.0000 N   0  0  0  0  0  0  0  0  0  0  0  0
    7.5673    0.5838    0.0000 N   0  0  0  0  0  0  0  0  0  0  0  0
    9.2136    0.0458    0.0000 N   0  0  0  0  0  0  0  0  0  0  0  0
    7.9244   -1.1110    0.0000 N   0  0  0  0  0  0  0  0  0  0  0  0
    9.5708   -1.6491    0.0000 N   0  0  0  0  0  0  0  0  0  0  0  0
   11.7920    2.3592    0.0000 C   0  0  0  0  0  0  0  0  0  0  0  0
   11.4348    4.0541    0.0000 C   0  0  0  0  0  0  0  0  0  0  0  0
   12.7705    2.5655    0.0000 C   0  0  0  0  0  0  0  0  0  0  0  0
   12.4133    4.2603    0.0000 C   0  0  0  0  0  0  0  0  0  0  0  0
   10.1456    2.8973    0.0000 C   0  0  0  0  0  0  0  0  0  0  0  0
   14.0596    3.7222    0.0000 C   0  0  0  0  0  0  0  0  0  0  0  0
    9.8349    1.9468    0.0000 C   0  0  0  0  0  0  0  0  0  0  0  0
   14.7275    2.9779    0.0000 C   0  0  0  0  0  0  0  0  0  0  0  0
   14.3703    4.6727    0.0000 C   0  0  0  0  0  0  0  0  0  0  0  0
   15.7060    3.1841    0.0000 C   0  0  0  0  0  0  0  0  0  0  0  0
   15.3488    4.8789    0.0000 C   0  0  0  0  0  0  0  0  0  0  0  0
    4.6783   -2.6801    0.0000 C   0  0  0  0  0  0  0  0  0  0  0  0
    8.5458    0.7901    0.0000 C   0  0  0  0  0  0  0  0  0  0  0  0
    4.9889   -1.7296    0.0000 C   0  0  0  0  0  0  0  0  0  0  0  0
   16.0166    4.1346    0.0000 C   0  0  0  0  0  0  0  0  0  0  0  0
    3.7320   -2.9849    0.0000 C   0  0  0  0  0  0  0  0  0  0  0  0
    5.9674   -1.5234    0.0000 C   0  0  0  0  0  0  0  0  0  0  0  0
    3.7320   -3.9849    0.0000 C   0  0  0  0  0  0  0  0  0  0  0  0
    5.2619   -3.4849    0.0000 C   0  0  0  0  0  0  0  0  0  0  0  0
    2.8660   -2.4849    0.0000 C   0  0  0  0  0  0  0  0  0  0  0  0
    7.2566   -0.3667    0.0000 C   0  0  0  0  0  0  0  0  0  0  0  0
    2.8660   -4.4849    0.0000 C   0  0  0  0  0  0  0  0  0  0  0  0
    2.0000   -2.9849    0.0000 C   0  0  0  0  0  0  0  0  0  0  0  0
    2.0000   -3.9849    0.0000 C   0  0  0  0  0  0  0  0  0  0  0  0
    8.9030   -0.9048    0.0000 C   0  0  0  0  0  0  0  0  0  0  0  0
   11.2656    2.0316    0.0000 H   0  0  0  0  0  0  0  0  0  0  0  0
   12.0232    1.7840    0.0000 H   0  0  0  0  0  0  0  0  0  0  0  0
   11.4142    4.6737    0.0000 H   0  0  0  0  0  0  0  0  0  0  0  0
   10.8210    4.1414    0.0000 H   0  0  0  0  0  0  0  0  0  0  0  0
   12.7910    1.9458    0.0000 H   0  0  0  0  0  0  0  0  0  0  0  0
   13.3843    2.4781    0.0000 H   0  0  0  0  0  0  0  0  0  0  0  0
   12.9396    4.5879    0.0000 H   0  0  0  0  0  0  0  0  0  0  0  0
   12.1820    4.8355    0.0000 H   0  0  0  0  0  0  0  0  0  0  0  0
   10.1250    3.5170    0.0000 H   0  0  0  0  0  0  0  0  0  0  0  0
    9.5318    2.9847    0.0000 H   0  0  0  0  0  0  0  0  0  0  0  0
    9.8555    1.3272    0.0000 H   0  0  0  0  0  0  0  0  0  0  0  0
   10.4488    1.8594    0.0000 H   0  0  0  0  0  0  0  0  0  0  0  0
   14.5349    2.3886    0.0000 H   0  0  0  0  0  0  0  0  0  0  0  0
   13.9562    5.1342    0.0000 H   0  0  0  0  0  0  0  0  0  0  0  0
    8.4424    2.2020    0.0000 H   0  0  0  0  0  0  0  0  0  0  0  0
   16.1200    2.7226    0.0000 H   0  0  0  0  0  0  0  0  0  0  0  0
   15.5414    5.4683    0.0000 H   0  0  0  0  0  0  0  0  0  0  0  0
    4.9684   -1.1100    0.0000 H   0  0  0  0  0  0  0  0  0  0  0  0
    4.3751   -1.6423    0.0000 H   0  0  0  0  0  0  0  0  0  0  0  0
   16.6233    4.2625    0.0000 H   0  0  0  0  0  0  0  0  0  0  0  0
    5.9880   -2.1431    0.0000 H   0  0  0  0  0  0  0  0  0  0  0  0
    6.5812   -1.6108    0.0000 H   0  0  0  0  0  0  0  0  0  0  0  0
    5.8819   -3.4849    0.0000 H   0  0  0  0  0  0  0  0  0  0  0  0
    4.8709   -4.8789    0.0000 H   0  0  0  0  0  0  0  0  0  0  0  0
    5.8640   -0.1114    0.0000 H   0  0  0  0  0  0  0  0  0  0  0  0
    2.8660   -1.8649    0.0000 H   0  0  0  0  0  0  0  0  0  0  0  0
    2.8660   -5.1049    0.0000 H   0  0  0  0  0  0  0  0  0  0  0  0
    1.4631   -2.6749    0.0000 H   0  0  0  0  0  0  0  0  0  0  0  0
    1.4631   -4.2949    0.0000 H   0  0  0  0  0  0  0  0  0  0  0  0
   10.1775   -1.5212    0.0000 H   0  0  0  0  0  0  0  0  0  0  0  0
    9.3782   -2.2384    0.0000 H   0  0  0  0  0  0  0  0  0  0  0  0
  1 10  1  0  0  0  0
  1 11  1  0  0  0  0
  1 14  1  0  0  0  0
  2 12  1  0  0  0  0
  2 13  1  0  0  0  0
  2 15  1  0  0  0  0
  3 16  1  0  0  0  0
  3 22  1  0  0  0  0
  3 49  1  0  0  0  0
  4 27  1  0  0  0  0
  4 28  1  0  0  0  0
  4 58  1  0  0  0  0
  5 26  1  0  0  0  0
  5 30  1  0  0  0  0
  5 59  1  0  0  0  0
  6 22  1  0  0  0  0
  6 30  2  0  0  0  0
  7 22  2  0  0  0  0
  7 34  1  0  0  0  0
  8 30  1  0  0  0  0
  8 34  2  0  0  0  0
  9 34  1  0  0  0  0
  9 64  1  0  0  0  0
  9 65  1  0  0  0  0
 10 12  1  0  0  0  0
 10 35  1  0  0  0  0
 10 36  1  0  0  0  0
 11 13  1  0  0  0  0
 11 37  1  0  0  0  0
 11 38  1  0  0  0  0
 12 39  1  0  0  0  0
 12 40  1  0  0  0  0
 13 41  1  0  0  0  0
 13 42  1  0  0  0  0
 14 16  1  0  0  0  0
 14 43  1  0  0  0  0
 14 44  1  0  0  0  0
 15 17  2  0  0  0  0
 15 18  1  0  0  0  0
 16 45  1  0  0  0  0
 16 46  1  0  0  0  0
 17 19  1  0  0  0  0
 17 47  1  0  0  0  0
 18 20  2  0  0  0  0
 18 48  1  0  0  0  0
 19 24  2  0  0  0  0
 19 50  1  0  0  0  0
 20 24  1  0  0  0  0
 20 51  1  0  0  0  0
 21 23  1  0  0  0  0
 21 25  1  0  0  0  0
 21 28  2  0  0  0  0
 23 26  1  0  0  0  0
 23 52  1  0  0  0  0
 23 53  1  0  0  0  0
 24 54  1  0  0  0  0
 25 27  1  0  0  0  0
 25 29  2  0  0  0  0
 26 55  1  0  0  0  0
 26 56  1  0  0  0  0
 27 31  2  0  0  0  0
 28 57  1  0  0  0  0
 29 32  1  0  0  0  0
 29 60  1  0  0  0  0
 31 33  1  0  0  0  0
 31 61  1  0  0  0  0
 32 33  2  0  0  0  0
 32 62  1  0  0  0  0
 33 63  1  0  0  0  0
M  END
> <PUBCHEM_COMPOUND_CID>
168292411

> <PUBCHEM_COMPOUND_CANONICALIZED>
1

> <PUBCHEM_CACTVS_COMPLEXITY>
593

> <PUBCHEM_CACTVS_HBOND_ACCEPTOR>
8

> <PUBCHEM_CACTVS_HBOND_DONOR>
4

> <PUBCHEM_CACTVS_ROTATABLE_BOND>
9

> <PUBCHEM_CACTVS_SUBSKEYS>
AAADceB7wAAAAAAAAAAAAAAAAAAAAWAAAAA8eIEAAAAAAFgB/AAAHAAQAAAADAjBHgQ90PfJkACgAzRnZACCgCkxAqAJ2aA4ZJiIaOLAmZGUIAhokALIyAcQgMAOgAAAAAACAAAAAAAAAAQAAAAAAAAAAA==

> <PUBCHEM_IUPAC_OPENEYE_NAME>
N4-[2-(1H-indol-3-yl)ethyl]-N2-[2-(4-phenylpiperazin-1-yl)ethyl]-1,3,5-triazine-2,4,6-triamine

> <PUBCHEM_IUPAC_CAS_NAME>
N4-[2-(1H-indol-3-yl)ethyl]-N2-[2-(4-phenyl-1-piperazinyl)ethyl]-1,3,5-triazine-2,4,6-triamine

> <PUBCHEM_IUPAC_NAME_MARKUP>
4-<I>N</I>-[2-(1<I>H</I>-indol-3-yl)ethyl]-2-<I>N</I>-[2-(4-phenylpiperazin-1-yl)ethyl]-1,3,5-triazine-2,4,6-triamine

> <PUBCHEM_IUPAC_NAME>
4-N-[2-(1H-indol-3-yl)ethyl]-2-N-[2-(4-phenylpiperazin-1-yl)ethyl]-1,3,5-triazine-2,4,6-triamine

> <PUBCHEM_IUPAC_SYSTEMATIC_NAME>
N4-[2-(1H-indol-3-yl)ethyl]-N2-[2-(4-phenylpiperazin-1-yl)ethyl]-1,3,5-triazine-2,4,6-triamine

> <PUBCHEM_IUPAC_TRADITIONAL_NAME>
[4-amino-6-[2-(1H-indol-3-yl)ethylamino]-s-triazin-2-yl]-[2-(4-phenylpiperazino)ethyl]amine

> <PUBCHEM_IUPAC_INCHI>
InChI=1S/C25H31N9/c26-23-30-24(27-11-10-19-18-29-22-9-5-4-8-21(19)22)32-25(31-23)28-12-13-33-14-16-34(17-15-33)20-6-2-1-3-7-20/h1-9,18,29H,10-17H2,(H4,26,27,28,30,31,32)

> <PUBCHEM_IUPAC_INCHIKEY>
URSQASKSKBUBLK-UHFFFAOYSA-N

> <PUBCHEM_XLOGP3_AA>
4

> <PUBCHEM_EXACT_MASS>
457.27024203

> <PUBCHEM_MOLECULAR_FORMULA>
C25H31N9

> <PUBCHEM_MOLECULAR_WEIGHT>
457.6

> <PUBCHEM_OPENEYE_CAN_SMILES>
C1CN(CCN1CCNC2=NC(=NC(=N2)NCCC3=CNC4=CC=CC=C43)N)C5=CC=CC=C5

> <PUBCHEM_OPENEYE_ISO_SMILES>
C1CN(CCN1CCNC2=NC(=NC(=N2)NCCC3=CNC4=CC=CC=C43)N)C5=CC=CC=C5

> <PUBCHEM_CACTVS_TPSA>
111

> <PUBCHEM_MONOISOTOPIC_WEIGHT>
457.27024203

> <PUBCHEM_TOTAL_CHARGE>
0

> <PUBCHEM_HEAVY_ATOM_COUNT>
34

> <PUBCHEM_ATOM_DEF_STEREO_COUNT>
0

> <PUBCHEM_ATOM_UDEF_STEREO_COUNT>
0

> <PUBCHEM_BOND_DEF_STEREO_COUNT>
0

> <PUBCHEM_BOND_UDEF_STEREO_COUNT>
0

> <PUBCHEM_ISOTOPIC_ATOM_COUNT>
0

> <PUBCHEM_COMPONENT_COUNT>
1

> <PUBCHEM_CACTVS_TAUTO_COUNT>
-1

> <PUBCHEM_COORDINATE_TYPE>
1
5
255

> <PUBCHEM_BONDANNOTATIONS>
15  17  8
15  18  8
17  19  8
18  20  8
19  24  8
20  24  8
21  25  8
21  28  8
25  27  8
25  29  8
27  31  8
29  32  8
31  33  8
32  33  8
4  27  8
4  28  8
6  22  8
6  30  8
7  22  8
7  34  8
8  30  8
8  34  8

$$$$
