168273001
  -OEChem-09292322452D

 55 58  0     0  0  0  0  0  0999 V2000
   11.4813    1.7180    0.0000 O   0  0  0  0  0  0  0  0  0  0  0  0
    4.6783   -3.9803    0.0000 N   0  0  0  0  0  0  0  0  0  0  0  0
    6.2781   -0.2636    0.0000 N   0  0  0  0  0  0  0  0  0  0  0  0
    8.8564    2.0499    0.0000 N   0  0  0  0  0  0  0  0  0  0  0  0
    7.5673    0.8932    0.0000 N   0  0  0  0  0  0  0  0  0  0  0  0
    7.9244   -0.8016    0.0000 N   0  0  0  0  0  0  0  0  0  0  0  0
    9.2136    0.3551    0.0000 N   0  0  0  0  0  0  0  0  0  0  0  0
    9.5708   -1.3397    0.0000 N   0  0  0  0  0  0  0  0  0  0  0  0
    4.6783   -2.3708    0.0000 C   0  0  0  0  0  0  0  0  0  0  0  0
    4.9889   -1.4203    0.0000 C   0  0  0  0  0  0  0  0  0  0  0  0
    3.7320   -2.6756    0.0000 C   0  0  0  0  0  0  0  0  0  0  0  0
    3.7320   -3.6756    0.0000 C   0  0  0  0  0  0  0  0  0  0  0  0
    5.9674   -1.2141    0.0000 C   0  0  0  0  0  0  0  0  0  0  0  0
    5.2619   -3.1756    0.0000 C   0  0  0  0  0  0  0  0  0  0  0  0
    2.8660   -2.1756    0.0000 C   0  0  0  0  0  0  0  0  0  0  0  0
    2.8660   -4.1756    0.0000 C   0  0  0  0  0  0  0  0  0  0  0  0
   10.1456    3.2066    0.0000 C   0  0  0  0  0  0  0  0  0  0  0  0
    9.8349    2.2561    0.0000 C   0  0  0  0  0  0  0  0  0  0  0  0
    2.0000   -2.6756    0.0000 C   0  0  0  0  0  0  0  0  0  0  0  0
   11.1241    3.4129    0.0000 C   0  0  0  0  0  0  0  0  0  0  0  0
    2.0000   -3.6756    0.0000 C   0  0  0  0  0  0  0  0  0  0  0  0
    7.2566   -0.0573    0.0000 C   0  0  0  0  0  0  0  0  0  0  0  0
   11.7920    2.6686    0.0000 C   0  0  0  0  0  0  0  0  0  0  0  0
   11.4348    4.3634    0.0000 C   0  0  0  0  0  0  0  0  0  0  0  0
    8.5458    1.0994    0.0000 C   0  0  0  0  0  0  0  0  0  0  0  0
   12.7705    2.8748    0.0000 C   0  0  0  0  0  0  0  0  0  0  0  0
   12.4133    4.5696    0.0000 C   0  0  0  0  0  0  0  0  0  0  0  0
   13.0811    3.8253    0.0000 C   0  0  0  0  0  0  0  0  0  0  0  0
    8.9030   -0.5954    0.0000 C   0  0  0  0  0  0  0  0  0  0  0  0
   12.1491    0.9737    0.0000 C   0  0  0  0  0  0  0  0  0  0  0  0
    4.9684   -0.8006    0.0000 H   0  0  0  0  0  0  0  0  0  0  0  0
    4.3751   -1.3330    0.0000 H   0  0  0  0  0  0  0  0  0  0  0  0
    5.9880   -1.8337    0.0000 H   0  0  0  0  0  0  0  0  0  0  0  0
    6.5812   -1.3014    0.0000 H   0  0  0  0  0  0  0  0  0  0  0  0
    5.8819   -3.1756    0.0000 H   0  0  0  0  0  0  0  0  0  0  0  0
    4.8709   -4.5696    0.0000 H   0  0  0  0  0  0  0  0  0  0  0  0
    2.8660   -1.5556    0.0000 H   0  0  0  0  0  0  0  0  0  0  0  0
    2.8660   -4.7956    0.0000 H   0  0  0  0  0  0  0  0  0  0  0  0
   10.1250    3.8263    0.0000 H   0  0  0  0  0  0  0  0  0  0  0  0
    9.5318    3.2940    0.0000 H   0  0  0  0  0  0  0  0  0  0  0  0
    5.8640    0.1979    0.0000 H   0  0  0  0  0  0  0  0  0  0  0  0
    9.8555    1.6365    0.0000 H   0  0  0  0  0  0  0  0  0  0  0  0
   10.4488    2.1688    0.0000 H   0  0  0  0  0  0  0  0  0  0  0  0
    1.4631   -2.3656    0.0000 H   0  0  0  0  0  0  0  0  0  0  0  0
    1.4631   -3.9856    0.0000 H   0  0  0  0  0  0  0  0  0  0  0  0
    8.4424    2.5114    0.0000 H   0  0  0  0  0  0  0  0  0  0  0  0
   11.0207    4.8249    0.0000 H   0  0  0  0  0  0  0  0  0  0  0  0
   13.1845    2.4133    0.0000 H   0  0  0  0  0  0  0  0  0  0  0  0
   12.6059    5.1589    0.0000 H   0  0  0  0  0  0  0  0  0  0  0  0
   13.6878    3.9532    0.0000 H   0  0  0  0  0  0  0  0  0  0  0  0
   11.6877    0.5597    0.0000 H   0  0  0  0  0  0  0  0  0  0  0  0
   12.5632    0.5123    0.0000 H   0  0  0  0  0  0  0  0  0  0  0  0
   12.6106    1.3878    0.0000 H   0  0  0  0  0  0  0  0  0  0  0  0
   10.1775   -1.2119    0.0000 H   0  0  0  0  0  0  0  0  0  0  0  0
    9.3782   -1.9290    0.0000 H   0  0  0  0  0  0  0  0  0  0  0  0
  1 23  1  0  0  0  0
  1 30  1  0  0  0  0
  2 12  1  0  0  0  0
  2 14  1  0  0  0  0
  2 36  1  0  0  0  0
  3 13  1  0  0  0  0
  3 22  1  0  0  0  0
  3 41  1  0  0  0  0
  4 18  1  0  0  0  0
  4 25  1  0  0  0  0
  4 46  1  0  0  0  0
  5 22  1  0  0  0  0
  5 25  2  0  0  0  0
  6 22  2  0  0  0  0
  6 29  1  0  0  0  0
  7 25  1  0  0  0  0
  7 29  2  0  0  0  0
  8 29  1  0  0  0  0
  8 54  1  0  0  0  0
  8 55  1  0  0  0  0
  9 10  1  0  0  0  0
  9 11  1  0  0  0  0
  9 14  2  0  0  0  0
 10 13  1  0  0  0  0
 10 31  1  0  0  0  0
 10 32  1  0  0  0  0
 11 12  1  0  0  0  0
 11 15  2  0  0  0  0
 12 16  2  0  0  0  0
 13 33  1  0  0  0  0
 13 34  1  0  0  0  0
 14 35  1  0  0  0  0
 15 19  1  0  0  0  0
 15 37  1  0  0  0  0
 16 21  1  0  0  0  0
 16 38  1  0  0  0  0
 17 18  1  0  0  0  0
 17 20  1  0  0  0  0
 17 39  1  0  0  0  0
 17 40  1  0  0  0  0
 18 42  1  0  0  0  0
 18 43  1  0  0  0  0
 19 21  2  0  0  0  0
 19 44  1  0  0  0  0
 20 23  1  0  0  0  0
 20 24  2  0  0  0  0
 21 45  1  0  0  0  0
 23 26  2  0  0  0  0
 24 27  1  0  0  0  0
 24 47  1  0  0  0  0
 26 28  1  0  0  0  0
 26 48  1  0  0  0  0
 27 28  2  0  0  0  0
 27 49  1  0  0  0  0
 28 50  1  0  0  0  0
 30 51  1  0  0  0  0
 30 52  1  0  0  0  0
 30 53  1  0  0  0  0
M  END
> <PUBCHEM_COMPOUND_CID>
168273001

> <PUBCHEM_COMPOUND_CANONICALIZED>
1

> <PUBCHEM_CACTVS_COMPLEXITY>
510

> <PUBCHEM_CACTVS_HBOND_ACCEPTOR>
7

> <PUBCHEM_CACTVS_HBOND_DONOR>
4

> <PUBCHEM_CACTVS_ROTATABLE_BOND>
9

> <PUBCHEM_CACTVS_SUBSKEYS>
AAADceB7oAAAAAAAAAAAAAAAAAAAAWAAAAA8YIAAAAAAAFgB/AAAHgAQAAAADAzBngY/1vbJlACgAzRnZACCiCkxIqAJ2aA+bJiMLuLEuZuEMChs0BPI6AewwOAOgAAAAAAKAAAAAAAAABQAAAAAAAAAAA==

> <PUBCHEM_IUPAC_OPENEYE_NAME>
N2-[2-(1H-indol-3-yl)ethyl]-N4-[2-(2-methoxyphenyl)ethyl]-1,3,5-triazine-2,4,6-triamine

> <PUBCHEM_IUPAC_CAS_NAME>
N2-[2-(1H-indol-3-yl)ethyl]-N4-[2-(2-methoxyphenyl)ethyl]-1,3,5-triazine-2,4,6-triamine

> <PUBCHEM_IUPAC_NAME_MARKUP>
2-<I>N</I>-[2-(1<I>H</I>-indol-3-yl)ethyl]-4-<I>N</I>-[2-(2-methoxyphenyl)ethyl]-1,3,5-triazine-2,4,6-triamine

> <PUBCHEM_IUPAC_NAME>
2-N-[2-(1H-indol-3-yl)ethyl]-4-N-[2-(2-methoxyphenyl)ethyl]-1,3,5-triazine-2,4,6-triamine

> <PUBCHEM_IUPAC_SYSTEMATIC_NAME>
N2-[2-(1H-indol-3-yl)ethyl]-N4-[2-(2-methoxyphenyl)ethyl]-1,3,5-triazine-2,4,6-triamine

> <PUBCHEM_IUPAC_TRADITIONAL_NAME>
[4-amino-6-[2-(1H-indol-3-yl)ethylamino]-s-triazin-2-yl]-[2-(2-methoxyphenyl)ethyl]amine

> <PUBCHEM_IUPAC_INCHI>
InChI=1S/C22H25N7O/c1-30-19-9-5-2-6-15(19)10-12-24-21-27-20(23)28-22(29-21)25-13-11-16-14-26-18-8-4-3-7-17(16)18/h2-9,14,26H,10-13H2,1H3,(H4,23,24,25,27,28,29)

> <PUBCHEM_IUPAC_INCHIKEY>
QKSQQPDOYVQCNJ-UHFFFAOYSA-N

> <PUBCHEM_XLOGP3_AA>
4.3

> <PUBCHEM_EXACT_MASS>
403.21205845

> <PUBCHEM_MOLECULAR_FORMULA>
C22H25N7O

> <PUBCHEM_MOLECULAR_WEIGHT>
403.5

> <PUBCHEM_OPENEYE_CAN_SMILES>
COC1=CC=CC=C1CCNC2=NC(=NC(=N2)N)NCCC3=CNC4=CC=CC=C43

> <PUBCHEM_OPENEYE_ISO_SMILES>
COC1=CC=CC=C1CCNC2=NC(=NC(=N2)N)NCCC3=CNC4=CC=CC=C43

> <PUBCHEM_CACTVS_TPSA>
114

> <PUBCHEM_MONOISOTOPIC_WEIGHT>
403.21205845

> <PUBCHEM_TOTAL_CHARGE>
0

> <PUBCHEM_HEAVY_ATOM_COUNT>
30

> <PUBCHEM_ATOM_DEF_STEREO_COUNT>
0

> <PUBCHEM_ATOM_UDEF_STEREO_COUNT>
0

> <PUBCHEM_BOND_DEF_STEREO_COUNT>
0

> <PUBCHEM_BOND_UDEF_STEREO_COUNT>
0

> <PUBCHEM_ISOTOPIC_ATOM_COUNT>
0

> <PUBCHEM_COMPONENT_COUNT>
1

> <PUBCHEM_CACTVS_TAUTO_COUNT>
-1

> <PUBCHEM_COORDINATE_TYPE>
1
5
255

> <PUBCHEM_BONDANNOTATIONS>
11  12  8
11  15  8
12  16  8
15  19  8
16  21  8
19  21  8
2  12  8
2  14  8
20  23  8
20  24  8
23  26  8
24  27  8
26  28  8
27  28  8
5  22  8
5  25  8
6  22  8
6  29  8
7  25  8
7  29  8
9  11  8
9  14  8

$$$$
