25157848
  -OEChem-09292322502D

 75 78  0     1  0  0  0  0  0999 V2000
    2.0000   -2.1975    0.0000 O   0  0  0  0  0  0  0  0  0  0  0  0
    2.0000   -0.1975    0.0000 O   0  0  0  0  0  0  0  0  0  0  0  0
   11.5942   -1.7383    0.0000 O   0  0  0  0  0  0  0  0  0  0  0  0
   15.9416    2.7450    0.0000 O   0  0  0  0  0  0  0  0  0  0  0  0
    6.3981   -1.7183    0.0000 N   0  0  3  0  0  0  0  0  0  0  0  0
    6.3981   -0.6766    0.0000 C   0  0  0  0  0  0  0  0  0  0  0  0
    5.4920   -2.2321    0.0000 C   0  0  0  0  0  0  0  0  0  0  0  0
    7.2622   -2.2216    0.0000 C   0  0  0  0  0  0  0  0  0  0  0  0
    5.4920   -0.1628    0.0000 C   0  0  0  0  0  0  0  0  0  0  0  0
    4.5981   -1.6975    0.0000 C   0  0  0  0  0  0  0  0  0  0  0  0
    4.5981   -0.6975    0.0000 C   0  0  0  0  0  0  0  0  0  0  0  0
    8.1301   -1.7250    0.0000 C   0  0  0  0  0  0  0  0  0  0  0  0
    8.9942   -2.2283    0.0000 C   0  0  0  0  0  0  0  0  0  0  0  0
    3.7320   -2.1975    0.0000 C   0  0  0  0  0  0  0  0  0  0  0  0
    3.7320   -0.1975    0.0000 C   0  0  0  0  0  0  0  0  0  0  0  0
    9.8622   -1.7316    0.0000 C   0  0  0  0  0  0  0  0  0  0  0  0
    2.8660   -1.6975    0.0000 C   0  0  0  0  0  0  0  0  0  0  0  0
    2.8660   -0.6975    0.0000 C   0  0  0  0  0  0  0  0  0  0  0  0
   10.7263   -2.2350    0.0000 C   0  0  0  0  0  0  0  0  0  0  0  0
   12.4583   -2.2416    0.0000 C   0  0  0  0  0  0  0  0  0  0  0  0
   13.3262   -1.7450    0.0000 C   0  0  0  0  0  0  0  0  0  0  0  0
   13.3301   -0.7450    0.0000 C   0  0  0  0  0  0  0  0  0  0  0  0
   14.1980   -0.2483    0.0000 C   0  0  0  0  0  0  0  0  0  0  0  0
    2.0000   -3.1975    0.0000 C   0  0  0  0  0  0  0  0  0  0  0  0
    2.0000    0.8025    0.0000 C   0  0  0  0  0  0  0  0  0  0  0  0
   12.4544   -3.2416    0.0000 C   0  0  0  0  0  0  0  0  0  0  0  0
   14.1903   -2.2483    0.0000 C   0  0  0  0  0  0  0  0  0  0  0  0
   14.2019    0.7517    0.0000 C   0  0  0  0  0  0  0  0  0  0  0  0
   13.3185   -3.7450    0.0000 C   0  0  0  0  0  0  0  0  0  0  0  0
   14.1865   -3.2483    0.0000 C   0  0  0  0  0  0  0  0  0  0  0  0
   15.0698    1.2483    0.0000 C   0  0  0  0  0  0  0  0  0  0  0  0
   13.3378    1.2550    0.0000 C   0  0  0  0  0  0  0  0  0  0  0  0
   15.0737    2.2483    0.0000 C   0  0  0  0  0  0  0  0  0  0  0  0
   13.3417    2.2550    0.0000 C   0  0  0  0  0  0  0  0  0  0  0  0
   14.2096    2.7516    0.0000 C   0  0  0  0  0  0  0  0  0  0  0  0
   15.9455    3.7450    0.0000 C   0  0  0  0  0  0  0  0  0  0  0  0
    7.0089   -0.7827    0.0000 H   0  0  0  0  0  0  0  0  0  0  0  0
    6.6071   -0.0930    0.0000 H   0  0  0  0  0  0  0  0  0  0  0  0
    5.0874   -2.7019    0.0000 H   0  0  0  0  0  0  0  0  0  0  0  0
    5.8856   -2.7111    0.0000 H   0  0  0  0  0  0  0  0  0  0  0  0
    6.8618   -2.6950    0.0000 H   0  0  0  0  0  0  0  0  0  0  0  0
    7.6589   -2.6981    0.0000 H   0  0  0  0  0  0  0  0  0  0  0  0
    5.8856    0.3162    0.0000 H   0  0  0  0  0  0  0  0  0  0  0  0
    5.0874    0.3070    0.0000 H   0  0  0  0  0  0  0  0  0  0  0  0
    8.5305   -1.2515    0.0000 H   0  0  0  0  0  0  0  0  0  0  0  0
    7.7334   -1.2485    0.0000 H   0  0  0  0  0  0  0  0  0  0  0  0
    8.5939   -2.7017    0.0000 H   0  0  0  0  0  0  0  0  0  0  0  0
    9.3909   -2.7048    0.0000 H   0  0  0  0  0  0  0  0  0  0  0  0
    3.7320   -2.8175    0.0000 H   0  0  0  0  0  0  0  0  0  0  0  0
    3.7320    0.4225    0.0000 H   0  0  0  0  0  0  0  0  0  0  0  0
   10.2625   -1.2582    0.0000 H   0  0  0  0  0  0  0  0  0  0  0  0
    9.4655   -1.2552    0.0000 H   0  0  0  0  0  0  0  0  0  0  0  0
   10.3259   -2.7084    0.0000 H   0  0  0  0  0  0  0  0  0  0  0  0
   11.1229   -2.7114    0.0000 H   0  0  0  0  0  0  0  0  0  0  0  0
   13.1203   -0.1616    0.0000 H   0  0  0  0  0  0  0  0  0  0  0  0
   12.7191   -0.8503    0.0000 H   0  0  0  0  0  0  0  0  0  0  0  0
   14.4078   -0.8318    0.0000 H   0  0  0  0  0  0  0  0  0  0  0  0
   14.8090   -0.1430    0.0000 H   0  0  0  0  0  0  0  0  0  0  0  0
    1.3800   -3.1975    0.0000 H   0  0  0  0  0  0  0  0  0  0  0  0
    2.0000   -3.8175    0.0000 H   0  0  0  0  0  0  0  0  0  0  0  0
    2.6200   -3.1975    0.0000 H   0  0  0  0  0  0  0  0  0  0  0  0
    2.6200    0.8025    0.0000 H   0  0  0  0  0  0  0  0  0  0  0  0
    2.0000    1.4225    0.0000 H   0  0  0  0  0  0  0  0  0  0  0  0
    1.3800    0.8025    0.0000 H   0  0  0  0  0  0  0  0  0  0  0  0
   11.9163   -3.5496    0.0000 H   0  0  0  0  0  0  0  0  0  0  0  0
   14.7285   -1.9404    0.0000 H   0  0  0  0  0  0  0  0  0  0  0  0
   13.3161   -4.3650    0.0000 H   0  0  0  0  0  0  0  0  0  0  0  0
   14.7222   -3.5604    0.0000 H   0  0  0  0  0  0  0  0  0  0  0  0
   15.6056    0.9363    0.0000 H   0  0  0  0  0  0  0  0  0  0  0  0
   12.7997    0.9471    0.0000 H   0  0  0  0  0  0  0  0  0  0  0  0
   12.8059    2.5671    0.0000 H   0  0  0  0  0  0  0  0  0  0  0  0
   14.2120    3.3716    0.0000 H   0  0  0  0  0  0  0  0  0  0  0  0
   16.5655    3.7426    0.0000 H   0  0  0  0  0  0  0  0  0  0  0  0
   15.9479    4.3650    0.0000 H   0  0  0  0  0  0  0  0  0  0  0  0
   15.3255    3.7474    0.0000 H   0  0  0  0  0  0  0  0  0  0  0  0
  1 17  1  0  0  0  0
  1 24  1  0  0  0  0
  2 18  1  0  0  0  0
  2 25  1  0  0  0  0
  3 19  1  0  0  0  0
  3 20  1  0  0  0  0
  4 33  1  0  0  0  0
  4 36  1  0  0  0  0
  5  6  1  0  0  0  0
  5  7  1  0  0  0  0
  5  8  1  0  0  0  0
  6  9  1  0  0  0  0
  6 37  1  0  0  0  0
  6 38  1  0  0  0  0
  7 10  1  0  0  0  0
  7 39  1  0  0  0  0
  7 40  1  0  0  0  0
  8 12  1  0  0  0  0
  8 41  1  0  0  0  0
  8 42  1  0  0  0  0
  9 11  1  0  0  0  0
  9 43  1  0  0  0  0
  9 44  1  0  0  0  0
 10 11  1  0  0  0  0
 10 14  2  0  0  0  0
 11 15  2  0  0  0  0
 12 13  1  0  0  0  0
 12 45  1  0  0  0  0
 12 46  1  0  0  0  0
 13 16  1  0  0  0  0
 13 47  1  0  0  0  0
 13 48  1  0  0  0  0
 14 17  1  0  0  0  0
 14 49  1  0  0  0  0
 15 18  1  0  0  0  0
 15 50  1  0  0  0  0
 16 19  1  0  0  0  0
 16 51  1  0  0  0  0
 16 52  1  0  0  0  0
 17 18  2  0  0  0  0
 19 53  1  0  0  0  0
 19 54  1  0  0  0  0
 20 21  1  0  0  0  0
 20 26  2  0  0  0  0
 21 22  1  0  0  0  0
 21 27  2  0  0  0  0
 22 23  1  0  0  0  0
 22 55  1  0  0  0  0
 22 56  1  0  0  0  0
 23 28  1  0  0  0  0
 23 57  1  0  0  0  0
 23 58  1  0  0  0  0
 24 59  1  0  0  0  0
 24 60  1  0  0  0  0
 24 61  1  0  0  0  0
 25 62  1  0  0  0  0
 25 63  1  0  0  0  0
 25 64  1  0  0  0  0
 26 29  1  0  0  0  0
 26 65  1  0  0  0  0
 27 30  1  0  0  0  0
 27 66  1  0  0  0  0
 28 31  2  0  0  0  0
 28 32  1  0  0  0  0
 29 30  2  0  0  0  0
 29 67  1  0  0  0  0
 30 68  1  0  0  0  0
 31 33  1  0  0  0  0
 31 69  1  0  0  0  0
 32 34  2  0  0  0  0
 32 70  1  0  0  0  0
 33 35  2  0  0  0  0
 34 35  1  0  0  0  0
 34 71  1  0  0  0  0
 35 72  1  0  0  0  0
 36 73  1  0  0  0  0
 36 74  1  0  0  0  0
 36 75  1  0  0  0  0
M  END
> <PUBCHEM_COMPOUND_CID>
25157848

> <PUBCHEM_COMPOUND_CANONICALIZED>
1

> <PUBCHEM_CACTVS_COMPLEXITY>
603

> <PUBCHEM_CACTVS_HBOND_ACCEPTOR>
5

> <PUBCHEM_CACTVS_HBOND_DONOR>
0

> <PUBCHEM_CACTVS_ROTATABLE_BOND>
13

> <PUBCHEM_CACTVS_SUBSKEYS>
AAADcfB6OAAAAAAAAAAAAAAAAAAAAAAAAAA8YMEAAAAAAACxUAAAHgAAAAAADAThmAYyBoMABACAAiBCAACCCAAgIAAIiAAOjIgNJiKEsRuGOCrkwBGKqAew0PIOoAABAAAYQABAAAIAADCAAAAAAAAAAA==

> <PUBCHEM_IUPAC_OPENEYE_NAME>
6,7-dimethoxy-2-[5-[2-[2-(3-methoxyphenyl)ethyl]phenoxy]pentyl]-3,4-dihydro-1H-isoquinoline

> <PUBCHEM_IUPAC_CAS_NAME>
6,7-dimethoxy-2-[5-[2-[2-(3-methoxyphenyl)ethyl]phenoxy]pentyl]-3,4-dihydro-1H-isoquinoline

> <PUBCHEM_IUPAC_NAME_MARKUP>
6,7-dimethoxy-2-[5-[2-[2-(3-methoxyphenyl)ethyl]phenoxy]pentyl]-3,4-dihydro-1<I>H</I>-isoquinoline

> <PUBCHEM_IUPAC_NAME>
6,7-dimethoxy-2-[5-[2-[2-(3-methoxyphenyl)ethyl]phenoxy]pentyl]-3,4-dihydro-1H-isoquinoline

> <PUBCHEM_IUPAC_SYSTEMATIC_NAME>
6,7-dimethoxy-2-[5-[2-[2-(3-methoxyphenyl)ethyl]phenoxy]pentyl]-3,4-dihydro-1H-isoquinoline

> <PUBCHEM_IUPAC_TRADITIONAL_NAME>
6,7-dimethoxy-2-[5-[2-[2-(3-methoxyphenyl)ethyl]phenoxy]pentyl]-3,4-dihydro-1H-isoquinoline

> <PUBCHEM_IUPAC_INCHI>
InChI=1S/C31H39NO4/c1-33-28-12-9-10-24(20-28)14-15-25-11-5-6-13-29(25)36-19-8-4-7-17-32-18-16-26-21-30(34-2)31(35-3)22-27(26)23-32/h5-6,9-13,20-22H,4,7-8,14-19,23H2,1-3H3

> <PUBCHEM_IUPAC_INCHIKEY>
UZHJKQAEGCHEJR-UHFFFAOYSA-N

> <PUBCHEM_XLOGP3_AA>
6.7

> <PUBCHEM_EXACT_MASS>
489.28790873

> <PUBCHEM_MOLECULAR_FORMULA>
C31H39NO4

> <PUBCHEM_MOLECULAR_WEIGHT>
489.6

> <PUBCHEM_OPENEYE_CAN_SMILES>
COC1=CC=CC(=C1)CCC2=CC=CC=C2OCCCCCN3CCC4=CC(=C(C=C4C3)OC)OC

> <PUBCHEM_OPENEYE_ISO_SMILES>
COC1=CC=CC(=C1)CCC2=CC=CC=C2OCCCCCN3CCC4=CC(=C(C=C4C3)OC)OC

> <PUBCHEM_CACTVS_TPSA>
40.2

> <PUBCHEM_MONOISOTOPIC_WEIGHT>
489.28790873

> <PUBCHEM_TOTAL_CHARGE>
0

> <PUBCHEM_HEAVY_ATOM_COUNT>
36

> <PUBCHEM_ATOM_DEF_STEREO_COUNT>
0

> <PUBCHEM_ATOM_UDEF_STEREO_COUNT>
0

> <PUBCHEM_BOND_DEF_STEREO_COUNT>
0

> <PUBCHEM_BOND_UDEF_STEREO_COUNT>
0

> <PUBCHEM_ISOTOPIC_ATOM_COUNT>
0

> <PUBCHEM_COMPONENT_COUNT>
1

> <PUBCHEM_CACTVS_TAUTO_COUNT>
-1

> <PUBCHEM_COORDINATE_TYPE>
1
5
255

> <PUBCHEM_BONDANNOTATIONS>
10  11  8
10  14  8
11  15  8
14  17  8
15  18  8
17  18  8
20  21  8
20  26  8
21  27  8
26  29  8
27  30  8
28  31  8
28  32  8
29  30  8
31  33  8
32  34  8
33  35  8
34  35  8

$$$$
