11613105
  -OEChem-09292322242D

 75 78  0     0  0  0  0  0  0999 V2000
   13.0704   -5.2238    0.0000 O   0  0  0  0  0  0  0  0  0  0  0  0
    9.6063    3.7762    0.0000 O   0  0  0  0  0  0  0  0  0  0  0  0
    2.4067    6.3103    0.0000 O   0  0  0  0  0  0  0  0  0  0  0  0
   11.3383   -2.2238    0.0000 N   0  0  0  0  0  0  0  0  0  0  0  0
   11.3383   -4.2238    0.0000 N   0  0  0  0  0  0  0  0  0  0  0  0
    8.7403    2.2762    0.0000 N   0  0  0  0  0  0  0  0  0  0  0  0
    6.7916    4.9786    0.0000 N   0  0  0  0  0  0  0  0  0  0  0  0
    6.9607    3.3694    0.0000 N   0  0  0  0  0  0  0  0  0  0  0  0
    6.2916    4.1126    0.0000 N   0  0  0  0  0  0  0  0  0  0  0  0
   12.2044   -2.7238    0.0000 C   0  0  0  0  0  0  0  0  0  0  0  0
   10.4723   -2.7238    0.0000 C   0  0  0  0  0  0  0  0  0  0  0  0
   12.2044   -3.7238    0.0000 C   0  0  0  0  0  0  0  0  0  0  0  0
   10.4723   -3.7238    0.0000 C   0  0  0  0  0  0  0  0  0  0  0  0
   11.3383   -1.2238    0.0000 C   0  0  0  0  0  0  0  0  0  0  0  0
   10.4723   -0.7238    0.0000 C   0  0  0  0  0  0  0  0  0  0  0  0
   10.4723    0.2762    0.0000 C   0  0  0  0  0  0  0  0  0  0  0  0
   11.3383   -5.2238    0.0000 C   0  0  0  0  0  0  0  0  0  0  0  0
    9.6063    0.7762    0.0000 C   0  0  0  0  0  0  0  0  0  0  0  0
   12.2044   -5.7238    0.0000 C   0  0  0  0  0  0  0  0  0  0  0  0
    9.6063    1.7762    0.0000 C   0  0  0  0  0  0  0  0  0  0  0  0
   10.4723   -5.7238    0.0000 C   0  0  0  0  0  0  0  0  0  0  0  0
   12.2044   -6.7238    0.0000 C   0  0  0  0  0  0  0  0  0  0  0  0
   10.4723   -6.7238    0.0000 C   0  0  0  0  0  0  0  0  0  0  0  0
   11.3383   -7.2238    0.0000 C   0  0  0  0  0  0  0  0  0  0  0  0
    8.7403    3.2762    0.0000 C   0  0  0  0  0  0  0  0  0  0  0  0
    7.8742    3.7762    0.0000 C   0  0  0  0  0  0  0  0  0  0  0  0
   13.9364   -5.7238    0.0000 C   0  0  0  0  0  0  0  0  0  0  0  0
    7.7697    4.7707    0.0000 C   0  0  0  0  0  0  0  0  0  0  0  0
    6.3848    5.8922    0.0000 C   0  0  0  0  0  0  0  0  0  0  0  0
    8.5128    5.4398    0.0000 C   0  0  0  0  0  0  0  0  0  0  0  0
    5.3903    5.9967    0.0000 C   0  0  0  0  0  0  0  0  0  0  0  0
    4.8025    5.1877    0.0000 C   0  0  0  0  0  0  0  0  0  0  0  0
    4.9836    6.9102    0.0000 C   0  0  0  0  0  0  0  0  0  0  0  0
    3.8080    5.2922    0.0000 C   0  0  0  0  0  0  0  0  0  0  0  0
    3.9890    7.0148    0.0000 C   0  0  0  0  0  0  0  0  0  0  0  0
    3.4013    6.2058    0.0000 C   0  0  0  0  0  0  0  0  0  0  0  0
    2.0000    7.2238    0.0000 C   0  0  0  0  0  0  0  0  0  0  0  0
   12.8149   -2.8315    0.0000 H   0  0  0  0  0  0  0  0  0  0  0  0
   12.4164   -2.1412    0.0000 H   0  0  0  0  0  0  0  0  0  0  0  0
   10.2603   -2.1412    0.0000 H   0  0  0  0  0  0  0  0  0  0  0  0
    9.8617   -2.8315    0.0000 H   0  0  0  0  0  0  0  0  0  0  0  0
   12.4164   -4.3064    0.0000 H   0  0  0  0  0  0  0  0  0  0  0  0
   12.8149   -3.6162    0.0000 H   0  0  0  0  0  0  0  0  0  0  0  0
    9.8617   -3.6162    0.0000 H   0  0  0  0  0  0  0  0  0  0  0  0
   10.2603   -4.3064    0.0000 H   0  0  0  0  0  0  0  0  0  0  0  0
   11.9489   -1.3315    0.0000 H   0  0  0  0  0  0  0  0  0  0  0  0
   11.5504   -0.6412    0.0000 H   0  0  0  0  0  0  0  0  0  0  0  0
    9.8617   -0.6162    0.0000 H   0  0  0  0  0  0  0  0  0  0  0  0
   10.2603   -1.3064    0.0000 H   0  0  0  0  0  0  0  0  0  0  0  0
   11.0829    0.1685    0.0000 H   0  0  0  0  0  0  0  0  0  0  0  0
   10.6844    0.8588    0.0000 H   0  0  0  0  0  0  0  0  0  0  0  0
    8.9957    0.8838    0.0000 H   0  0  0  0  0  0  0  0  0  0  0  0
    9.3942    0.1936    0.0000 H   0  0  0  0  0  0  0  0  0  0  0  0
   10.2169    1.6685    0.0000 H   0  0  0  0  0  0  0  0  0  0  0  0
    9.8183    2.3588    0.0000 H   0  0  0  0  0  0  0  0  0  0  0  0
    9.9354   -5.4138    0.0000 H   0  0  0  0  0  0  0  0  0  0  0  0
   12.7413   -7.0338    0.0000 H   0  0  0  0  0  0  0  0  0  0  0  0
    9.9354   -7.0338    0.0000 H   0  0  0  0  0  0  0  0  0  0  0  0
    8.2033    1.9662    0.0000 H   0  0  0  0  0  0  0  0  0  0  0  0
   11.3383   -7.8438    0.0000 H   0  0  0  0  0  0  0  0  0  0  0  0
   13.6264   -6.2608    0.0000 H   0  0  0  0  0  0  0  0  0  0  0  0
   14.4734   -6.0338    0.0000 H   0  0  0  0  0  0  0  0  0  0  0  0
   14.2464   -5.1869    0.0000 H   0  0  0  0  0  0  0  0  0  0  0  0
    6.9864    6.0422    0.0000 H   0  0  0  0  0  0  0  0  0  0  0  0
    6.3416    6.5106    0.0000 H   0  0  0  0  0  0  0  0  0  0  0  0
    8.9277    4.9791    0.0000 H   0  0  0  0  0  0  0  0  0  0  0  0
    8.9736    5.8547    0.0000 H   0  0  0  0  0  0  0  0  0  0  0  0
    8.0980    5.9006    0.0000 H   0  0  0  0  0  0  0  0  0  0  0  0
    5.0547    4.6213    0.0000 H   0  0  0  0  0  0  0  0  0  0  0  0
    5.3480    7.4118    0.0000 H   0  0  0  0  0  0  0  0  0  0  0  0
    3.4436    4.7906    0.0000 H   0  0  0  0  0  0  0  0  0  0  0  0
    3.7369    7.5812    0.0000 H   0  0  0  0  0  0  0  0  0  0  0  0
    2.5664    7.4760    0.0000 H   0  0  0  0  0  0  0  0  0  0  0  0
    1.7478    7.7902    0.0000 H   0  0  0  0  0  0  0  0  0  0  0  0
    1.4336    6.9716    0.0000 H   0  0  0  0  0  0  0  0  0  0  0  0
  1 19  1  0  0  0  0
  1 27  1  0  0  0  0
  2 25  2  0  0  0  0
  3 36  1  0  0  0  0
  3 37  1  0  0  0  0
  4 10  1  0  0  0  0
  4 11  1  0  0  0  0
  4 14  1  0  0  0  0
  5 12  1  0  0  0  0
  5 13  1  0  0  0  0
  5 17  1  0  0  0  0
  6 20  1  0  0  0  0
  6 25  1  0  0  0  0
  6 59  1  0  0  0  0
  7  9  1  0  0  0  0
  7 28  1  0  0  0  0
  7 29  1  0  0  0  0
  8  9  2  0  0  0  0
  8 26  1  0  0  0  0
 10 12  1  0  0  0  0
 10 38  1  0  0  0  0
 10 39  1  0  0  0  0
 11 13  1  0  0  0  0
 11 40  1  0  0  0  0
 11 41  1  0  0  0  0
 12 42  1  0  0  0  0
 12 43  1  0  0  0  0
 13 44  1  0  0  0  0
 13 45  1  0  0  0  0
 14 15  1  0  0  0  0
 14 46  1  0  0  0  0
 14 47  1  0  0  0  0
 15 16  1  0  0  0  0
 15 48  1  0  0  0  0
 15 49  1  0  0  0  0
 16 18  1  0  0  0  0
 16 50  1  0  0  0  0
 16 51  1  0  0  0  0
 17 19  1  0  0  0  0
 17 21  2  0  0  0  0
 18 20  1  0  0  0  0
 18 52  1  0  0  0  0
 18 53  1  0  0  0  0
 19 22  2  0  0  0  0
 20 54  1  0  0  0  0
 20 55  1  0  0  0  0
 21 23  1  0  0  0  0
 21 56  1  0  0  0  0
 22 24  1  0  0  0  0
 22 57  1  0  0  0  0
 23 24  2  0  0  0  0
 23 58  1  0  0  0  0
 24 60  1  0  0  0  0
 25 26  1  0  0  0  0
 26 28  2  0  0  0  0
 27 61  1  0  0  0  0
 27 62  1  0  0  0  0
 27 63  1  0  0  0  0
 28 30  1  0  0  0  0
 29 31  1  0  0  0  0
 29 64  1  0  0  0  0
 29 65  1  0  0  0  0
 30 66  1  0  0  0  0
 30 67  1  0  0  0  0
 30 68  1  0  0  0  0
 31 32  2  0  0  0  0
 31 33  1  0  0  0  0
 32 34  1  0  0  0  0
 32 69  1  0  0  0  0
 33 35  2  0  0  0  0
 33 70  1  0  0  0  0
 34 36  2  0  0  0  0
 34 71  1  0  0  0  0
 35 36  1  0  0  0  0
 35 72  1  0  0  0  0
 37 73  1  0  0  0  0
 37 74  1  0  0  0  0
 37 75  1  0  0  0  0
M  END
> <PUBCHEM_COMPOUND_CID>
11613105

> <PUBCHEM_COMPOUND_CANONICALIZED>
1

> <PUBCHEM_CACTVS_COMPLEXITY>
668

> <PUBCHEM_CACTVS_HBOND_ACCEPTOR>
7

> <PUBCHEM_CACTVS_HBOND_DONOR>
1

> <PUBCHEM_CACTVS_ROTATABLE_BOND>
12

> <PUBCHEM_CACTVS_SUBSKEYS>
AAADcfB7sAAAAAAAAAAAAAAAAAAAAWAAAAA8YIAAAAAAAAAB0AAAHgAYAAAADAzBngYyxpPIBACqAyVyVACCDAQnsgAY2IG/fMgOZjrE8ZuVMahk1hHY6UeQ0AIOIAAAAAAAEABAAAAAAAAgAAAAAAAAAA==

> <PUBCHEM_IUPAC_OPENEYE_NAME>
1-[(4-methoxyphenyl)methyl]-N-[5-[4-(2-methoxyphenyl)piperazin-1-yl]pentyl]-5-methyl-triazole-4-carboxamide

> <PUBCHEM_IUPAC_CAS_NAME>
1-[(4-methoxyphenyl)methyl]-N-[5-[4-(2-methoxyphenyl)-1-piperazinyl]pentyl]-5-methyl-4-triazolecarboxamide

> <PUBCHEM_IUPAC_NAME_MARKUP>
1-[(4-methoxyphenyl)methyl]-<I>N</I>-[5-[4-(2-methoxyphenyl)piperazin-1-yl]pentyl]-5-methyltriazole-4-carboxamide

> <PUBCHEM_IUPAC_NAME>
1-[(4-methoxyphenyl)methyl]-N-[5-[4-(2-methoxyphenyl)piperazin-1-yl]pentyl]-5-methyltriazole-4-carboxamide

> <PUBCHEM_IUPAC_SYSTEMATIC_NAME>
1-[(4-methoxyphenyl)methyl]-N-[5-[4-(2-methoxyphenyl)piperazin-1-yl]pentyl]-5-methyl-1,2,3-triazole-4-carboxamide

> <PUBCHEM_IUPAC_TRADITIONAL_NAME>
N-[5-[4-(2-methoxyphenyl)piperazino]pentyl]-5-methyl-1-p-anisyl-triazole-4-carboxamide

> <PUBCHEM_IUPAC_INCHI>
InChI=1S/C28H38N6O3/c1-22-27(30-31-34(22)21-23-11-13-24(36-2)14-12-23)28(35)29-15-7-4-8-16-32-17-19-33(20-18-32)25-9-5-6-10-26(25)37-3/h5-6,9-14H,4,7-8,15-21H2,1-3H3,(H,29,35)

> <PUBCHEM_IUPAC_INCHIKEY>
NLDBOKLMUAUKIM-UHFFFAOYSA-N

> <PUBCHEM_XLOGP3_AA>
3.9

> <PUBCHEM_EXACT_MASS>
506.30053910

> <PUBCHEM_MOLECULAR_FORMULA>
C28H38N6O3

> <PUBCHEM_MOLECULAR_WEIGHT>
506.6

> <PUBCHEM_OPENEYE_CAN_SMILES>
CC1=C(N=NN1CC2=CC=C(C=C2)OC)C(=O)NCCCCCN3CCN(CC3)C4=CC=CC=C4OC

> <PUBCHEM_OPENEYE_ISO_SMILES>
CC1=C(N=NN1CC2=CC=C(C=C2)OC)C(=O)NCCCCCN3CCN(CC3)C4=CC=CC=C4OC

> <PUBCHEM_CACTVS_TPSA>
84.8

> <PUBCHEM_MONOISOTOPIC_WEIGHT>
506.30053910

> <PUBCHEM_TOTAL_CHARGE>
0

> <PUBCHEM_HEAVY_ATOM_COUNT>
37

> <PUBCHEM_ATOM_DEF_STEREO_COUNT>
0

> <PUBCHEM_ATOM_UDEF_STEREO_COUNT>
0

> <PUBCHEM_BOND_DEF_STEREO_COUNT>
0

> <PUBCHEM_BOND_UDEF_STEREO_COUNT>
0

> <PUBCHEM_ISOTOPIC_ATOM_COUNT>
0

> <PUBCHEM_COMPONENT_COUNT>
1

> <PUBCHEM_CACTVS_TAUTO_COUNT>
-1

> <PUBCHEM_COORDINATE_TYPE>
1
5
255

> <PUBCHEM_BONDANNOTATIONS>
17  19  8
17  21  8
19  22  8
21  23  8
22  24  8
23  24  8
26  28  8
31  32  8
31  33  8
32  34  8
33  35  8
34  36  8
35  36  8
7  28  8
7  9  8
8  26  8
8  9  8

$$$$
