23202826
  -OEChem-09292322202D

 58 61  0     1  0  0  0  0  0999 V2000
    7.8967   -3.3750    0.0000 S   0  0  0  0  0  0  0  0  0  0  0  0
    4.4326   -1.3750    0.0000 O   0  0  0  0  0  0  0  0  0  0  0  0
    7.3967   -4.2410    0.0000 O   0  0  0  0  0  0  0  0  0  0  0  0
    8.3967   -2.5090    0.0000 O   0  0  0  0  0  0  0  0  0  0  0  0
    5.4836    2.8864    0.0000 N   0  0  3  0  0  0  0  0  0  0  0  0
    5.3556    0.2128    0.0000 N   0  0  0  0  0  0  0  0  0  0  0  0
    4.9836    3.7524    0.0000 C   0  0  3  0  0  0  0  0  0  0  0  0
    5.6527    4.4956    0.0000 C   0  0  0  0  0  0  0  0  0  0  0  0
    6.4617    3.0943    0.0000 C   0  0  0  0  0  0  0  0  0  0  0  0
    6.5662    4.0888    0.0000 C   0  0  0  0  0  0  0  0  0  0  0  0
    5.0768    1.9728    0.0000 C   0  0  0  0  0  0  0  0  0  0  0  0
    3.9890    3.8569    0.0000 C   0  0  0  0  0  0  0  0  0  0  0  0
    5.6646    1.1638    0.0000 C   0  0  0  0  0  0  0  0  0  0  0  0
    3.5823    4.7705    0.0000 C   0  0  0  0  0  0  0  0  0  0  0  0
    3.4013    3.0479    0.0000 C   0  0  0  0  0  0  0  0  0  0  0  0
    6.6646    1.1638    0.0000 C   0  0  0  0  0  0  0  0  0  0  0  0
    6.1646   -0.3750    0.0000 C   0  0  0  0  0  0  0  0  0  0  0  0
    6.9736    0.2128    0.0000 C   0  0  0  0  0  0  0  0  0  0  0  0
    2.5878    4.8750    0.0000 C   0  0  0  0  0  0  0  0  0  0  0  0
    2.4067    3.1524    0.0000 C   0  0  0  0  0  0  0  0  0  0  0  0
    6.1646   -1.3750    0.0000 C   0  0  0  0  0  0  0  0  0  0  0  0
    2.0000    4.0660    0.0000 C   0  0  0  0  0  0  0  0  0  0  0  0
    7.0306   -1.8750    0.0000 C   0  0  0  0  0  0  0  0  0  0  0  0
    5.2986   -1.8750    0.0000 C   0  0  0  0  0  0  0  0  0  0  0  0
    7.0306   -2.8750    0.0000 C   0  0  0  0  0  0  0  0  0  0  0  0
    5.2986   -2.8750    0.0000 C   0  0  0  0  0  0  0  0  0  0  0  0
    6.1646   -3.3750    0.0000 C   0  0  0  0  0  0  0  0  0  0  0  0
    8.7627   -3.8750    0.0000 C   0  0  0  0  0  0  0  0  0  0  0  0
    8.7627   -4.8750    0.0000 C   0  0  0  0  0  0  0  0  0  0  0  0
    3.5665   -1.8750    0.0000 C   0  0  0  0  0  0  0  0  0  0  0  0
    4.6459    3.2324    0.0000 H   0  0  0  0  0  0  0  0  0  0  0  0
    5.9627    5.0325    0.0000 H   0  0  0  0  0  0  0  0  0  0  0  0
    5.1511    4.8600    0.0000 H   0  0  0  0  0  0  0  0  0  0  0  0
    6.5265    2.4777    0.0000 H   0  0  0  0  0  0  0  0  0  0  0  0
    7.0817    3.0943    0.0000 H   0  0  0  0  0  0  0  0  0  0  0  0
    7.1727    3.9599    0.0000 H   0  0  0  0  0  0  0  0  0  0  0  0
    6.7578    4.6785    0.0000 H   0  0  0  0  0  0  0  0  0  0  0  0
    4.5628    2.3195    0.0000 H   0  0  0  0  0  0  0  0  0  0  0  0
    4.6461    1.5268    0.0000 H   0  0  0  0  0  0  0  0  0  0  0  0
    3.9467    5.2721    0.0000 H   0  0  0  0  0  0  0  0  0  0  0  0
    3.6534    2.4815    0.0000 H   0  0  0  0  0  0  0  0  0  0  0  0
    4.7659    0.0212    0.0000 H   0  0  0  0  0  0  0  0  0  0  0  0
    7.0290    1.6654    0.0000 H   0  0  0  0  0  0  0  0  0  0  0  0
    7.5633    0.0212    0.0000 H   0  0  0  0  0  0  0  0  0  0  0  0
    2.3356    5.4414    0.0000 H   0  0  0  0  0  0  0  0  0  0  0  0
    2.0423    2.6509    0.0000 H   0  0  0  0  0  0  0  0  0  0  0  0
    1.3834    4.1308    0.0000 H   0  0  0  0  0  0  0  0  0  0  0  0
    7.5676   -1.5650    0.0000 H   0  0  0  0  0  0  0  0  0  0  0  0
    4.7617   -3.1850    0.0000 H   0  0  0  0  0  0  0  0  0  0  0  0
    6.1646   -3.9950    0.0000 H   0  0  0  0  0  0  0  0  0  0  0  0
    9.3733   -3.9827    0.0000 H   0  0  0  0  0  0  0  0  0  0  0  0
    8.9747   -3.2924    0.0000 H   0  0  0  0  0  0  0  0  0  0  0  0
    8.1427   -4.8750    0.0000 H   0  0  0  0  0  0  0  0  0  0  0  0
    8.7627   -5.4950    0.0000 H   0  0  0  0  0  0  0  0  0  0  0  0
    9.3827   -4.8750    0.0000 H   0  0  0  0  0  0  0  0  0  0  0  0
    3.2565   -1.3381    0.0000 H   0  0  0  0  0  0  0  0  0  0  0  0
    3.0296   -2.1850    0.0000 H   0  0  0  0  0  0  0  0  0  0  0  0
    3.8765   -2.4120    0.0000 H   0  0  0  0  0  0  0  0  0  0  0  0
  1  3  2  0  0  0  0
  1  4  2  0  0  0  0
  1 25  1  0  0  0  0
  1 28  1  0  0  0  0
  2 24  1  0  0  0  0
  2 30  1  0  0  0  0
  5  7  1  0  0  0  0
  5  9  1  0  0  0  0
  5 11  1  0  0  0  0
  6 13  1  0  0  0  0
  6 17  1  0  0  0  0
  6 42  1  0  0  0  0
  7  8  1  0  0  0  0
  7 12  1  0  0  0  0
  7 31  1  0  0  0  0
  8 10  1  0  0  0  0
  8 32  1  0  0  0  0
  8 33  1  0  0  0  0
  9 10  1  0  0  0  0
  9 34  1  0  0  0  0
  9 35  1  0  0  0  0
 10 36  1  0  0  0  0
 10 37  1  0  0  0  0
 11 13  1  0  0  0  0
 11 38  1  0  0  0  0
 11 39  1  0  0  0  0
 12 14  2  0  0  0  0
 12 15  1  0  0  0  0
 13 16  2  0  0  0  0
 14 19  1  0  0  0  0
 14 40  1  0  0  0  0
 15 20  2  0  0  0  0
 15 41  1  0  0  0  0
 16 18  1  0  0  0  0
 16 43  1  0  0  0  0
 17 18  2  0  0  0  0
 17 21  1  0  0  0  0
 18 44  1  0  0  0  0
 19 22  2  0  0  0  0
 19 45  1  0  0  0  0
 20 22  1  0  0  0  0
 20 46  1  0  0  0  0
 21 23  1  0  0  0  0
 21 24  2  0  0  0  0
 22 47  1  0  0  0  0
 23 25  2  0  0  0  0
 23 48  1  0  0  0  0
 24 26  1  0  0  0  0
 25 27  1  0  0  0  0
 26 27  2  0  0  0  0
 26 49  1  0  0  0  0
 27 50  1  0  0  0  0
 28 29  1  0  0  0  0
 28 51  1  0  0  0  0
 28 52  1  0  0  0  0
 29 53  1  0  0  0  0
 29 54  1  0  0  0  0
 29 55  1  0  0  0  0
 30 56  1  0  0  0  0
 30 57  1  0  0  0  0
 30 58  1  0  0  0  0
M  END
> <PUBCHEM_COMPOUND_CID>
23202826

> <PUBCHEM_COMPOUND_CANONICALIZED>
1

> <PUBCHEM_CACTVS_COMPLEXITY>
643

> <PUBCHEM_CACTVS_HBOND_ACCEPTOR>
4

> <PUBCHEM_CACTVS_HBOND_DONOR>
1

> <PUBCHEM_CACTVS_ROTATABLE_BOND>
7

> <PUBCHEM_CACTVS_SUBSKEYS>
AAADceB7MABAAAAAAAAAAAAAAAAAAWLAAAAwYAAAAAAAAAAB0AAAHgQQAAAADCzF3gayh5PJlAqgAyRiRHDCiCAhKjAImTg+bJgMZuLksZuUMChm0BHo6AeQwOAOAIAAgAAIAAABAAEAABAAAAAAAAAAAA==

> <PUBCHEM_IUPAC_OPENEYE_NAME>
2-(5-ethylsulfonyl-2-methoxy-phenyl)-5-[(2-phenylpyrrolidin-1-yl)methyl]-1H-pyrrole

> <PUBCHEM_IUPAC_CAS_NAME>
2-(5-ethylsulfonyl-2-methoxyphenyl)-5-[(2-phenyl-1-pyrrolidinyl)methyl]-1H-pyrrole

> <PUBCHEM_IUPAC_NAME_MARKUP>
2-(5-ethylsulfonyl-2-methoxyphenyl)-5-[(2-phenylpyrrolidin-1-yl)methyl]-1<I>H</I>-pyrrole

> <PUBCHEM_IUPAC_NAME>
2-(5-ethylsulfonyl-2-methoxyphenyl)-5-[(2-phenylpyrrolidin-1-yl)methyl]-1H-pyrrole

> <PUBCHEM_IUPAC_SYSTEMATIC_NAME>
2-(5-ethylsulfonyl-2-methoxy-phenyl)-5-[(2-phenylpyrrolidin-1-yl)methyl]-1H-pyrrole

> <PUBCHEM_IUPAC_TRADITIONAL_NAME>
2-(5-esyl-2-methoxy-phenyl)-5-[(2-phenylpyrrolidino)methyl]-1H-pyrrole

> <PUBCHEM_IUPAC_INCHI>
InChI=1S/C24H28N2O3S/c1-3-30(27,28)20-12-14-24(29-2)21(16-20)22-13-11-19(25-22)17-26-15-7-10-23(26)18-8-5-4-6-9-18/h4-6,8-9,11-14,16,23,25H,3,7,10,15,17H2,1-2H3

> <PUBCHEM_IUPAC_INCHIKEY>
XKRYBGZHAIRWAY-UHFFFAOYSA-N

> <PUBCHEM_XLOGP3_AA>
3.8

> <PUBCHEM_EXACT_MASS>
424.18206393

> <PUBCHEM_MOLECULAR_FORMULA>
C24H28N2O3S

> <PUBCHEM_MOLECULAR_WEIGHT>
424.6

> <PUBCHEM_OPENEYE_CAN_SMILES>
CCS(=O)(=O)C1=CC(=C(C=C1)OC)C2=CC=C(N2)CN3CCCC3C4=CC=CC=C4

> <PUBCHEM_OPENEYE_ISO_SMILES>
CCS(=O)(=O)C1=CC(=C(C=C1)OC)C2=CC=C(N2)CN3CCCC3C4=CC=CC=C4

> <PUBCHEM_CACTVS_TPSA>
70.8

> <PUBCHEM_MONOISOTOPIC_WEIGHT>
424.18206393

> <PUBCHEM_TOTAL_CHARGE>
0

> <PUBCHEM_HEAVY_ATOM_COUNT>
30

> <PUBCHEM_ATOM_DEF_STEREO_COUNT>
0

> <PUBCHEM_ATOM_UDEF_STEREO_COUNT>
1

> <PUBCHEM_BOND_DEF_STEREO_COUNT>
0

> <PUBCHEM_BOND_UDEF_STEREO_COUNT>
0

> <PUBCHEM_ISOTOPIC_ATOM_COUNT>
0

> <PUBCHEM_COMPONENT_COUNT>
1

> <PUBCHEM_CACTVS_TAUTO_COUNT>
-1

> <PUBCHEM_COORDINATE_TYPE>
1
5
255

> <PUBCHEM_BONDANNOTATIONS>
12  14  8
12  15  8
13  16  8
14  19  8
15  20  8
16  18  8
17  18  8
19  22  8
20  22  8
21  23  8
21  24  8
23  25  8
24  26  8
25  27  8
26  27  8
6  13  8
6  17  8
7  12  3

$$$$
