11543350
  -OEChem-09292322482D

 36 39  0     1  0  0  0  0  0999 V2000
    2.5381    2.6052    0.0000 O   0  0  0  0  0  0  0  0  0  0  0  0
    6.9343    1.0810    0.0000 N   0  0  3  0  0  0  0  0  0  0  0  0
    6.0682    0.5810    0.0000 C   0  0  3  0  0  0  0  0  0  0  0  0
    6.9343    2.0810    0.0000 C   0  0  0  0  0  0  0  0  0  0  0  0
    7.8443    0.5742    0.0000 C   0  0  0  0  0  0  0  0  0  0  0  0
    5.2022    1.0810    0.0000 C   0  0  0  0  0  0  0  0  0  0  0  0
    6.0522   -0.4605    0.0000 C   0  0  0  0  0  0  0  0  0  0  0  0
    6.0682    2.5810    0.0000 C   0  0  0  0  0  0  0  0  0  0  0  0
    7.8523   -0.4674    0.0000 C   0  0  0  0  0  0  0  0  0  0  0  0
    5.2022    2.0810    0.0000 C   0  0  0  0  0  0  0  0  0  0  0  0
    6.9502   -0.9882    0.0000 C   0  0  0  0  0  0  0  0  0  0  0  0
    4.3083    0.5464    0.0000 C   0  0  0  0  0  0  0  0  0  0  0  0
    5.1003   -0.9811    0.0000 C   0  0  0  0  0  0  0  0  0  0  0  0
    4.3083    2.6157    0.0000 C   0  0  0  0  0  0  0  0  0  0  0  0
    6.9586   -2.0732    0.0000 C   0  0  0  0  0  0  0  0  0  0  0  0
    3.4022    1.0602    0.0000 C   0  0  0  0  0  0  0  0  0  0  0  0
    3.4022    2.1019    0.0000 C   0  0  0  0  0  0  0  0  0  0  0  0
    5.0835   -2.0660    0.0000 C   0  0  0  0  0  0  0  0  0  0  0  0
    6.0190   -2.6157    0.0000 C   0  0  0  0  0  0  0  0  0  0  0  0
    5.5289    0.2752    0.0000 H   0  0  0  0  0  0  0  0  0  0  0  0
    7.5449    1.9734    0.0000 H   0  0  0  0  0  0  0  0  0  0  0  0
    7.1463    2.6636    0.0000 H   0  0  0  0  0  0  0  0  0  0  0  0
    8.4559    0.4728    0.0000 H   0  0  0  0  0  0  0  0  0  0  0  0
    8.0488    1.1595    0.0000 H   0  0  0  0  0  0  0  0  0  0  0  0
    6.4668    3.0560    0.0000 H   0  0  0  0  0  0  0  0  0  0  0  0
    5.6697    3.0560    0.0000 H   0  0  0  0  0  0  0  0  0  0  0  0
    8.0659   -1.0495    0.0000 H   0  0  0  0  0  0  0  0  0  0  0  0
    8.4623   -0.3566    0.0000 H   0  0  0  0  0  0  0  0  0  0  0  0
    4.3154   -0.0736    0.0000 H   0  0  0  0  0  0  0  0  0  0  0  0
    4.5694   -0.6608    0.0000 H   0  0  0  0  0  0  0  0  0  0  0  0
    4.3154    3.2356    0.0000 H   0  0  0  0  0  0  0  0  0  0  0  0
    7.4967   -2.3811    0.0000 H   0  0  0  0  0  0  0  0  0  0  0  0
    2.8665    0.7481    0.0000 H   0  0  0  0  0  0  0  0  0  0  0  0
    4.5430   -2.3697    0.0000 H   0  0  0  0  0  0  0  0  0  0  0  0
    6.0166   -3.2357    0.0000 H   0  0  0  0  0  0  0  0  0  0  0  0
    2.0000    2.2972    0.0000 H   0  0  0  0  0  0  0  0  0  0  0  0
  1 17  1  0  0  0  0
  1 36  1  0  0  0  0
  2  3  1  0  0  0  0
  2  4  1  0  0  0  0
  2  5  1  0  0  0  0
  3  6  1  0  0  0  0
  3  7  1  0  0  0  0
  3 20  1  0  0  0  0
  4  8  1  0  0  0  0
  4 21  1  0  0  0  0
  4 22  1  0  0  0  0
  5  9  1  0  0  0  0
  5 23  1  0  0  0  0
  5 24  1  0  0  0  0
  6 10  2  0  0  0  0
  6 12  1  0  0  0  0
  7 11  1  0  0  0  0
  7 13  2  0  0  0  0
  8 10  1  0  0  0  0
  8 25  1  0  0  0  0
  8 26  1  0  0  0  0
  9 11  1  0  0  0  0
  9 27  1  0  0  0  0
  9 28  1  0  0  0  0
 10 14  1  0  0  0  0
 11 15  2  0  0  0  0
 12 16  2  0  0  0  0
 12 29  1  0  0  0  0
 13 18  1  0  0  0  0
 13 30  1  0  0  0  0
 14 17  2  0  0  0  0
 14 31  1  0  0  0  0
 15 19  1  0  0  0  0
 15 32  1  0  0  0  0
 16 17  1  0  0  0  0
 16 33  1  0  0  0  0
 18 19  2  0  0  0  0
 18 34  1  0  0  0  0
 19 35  1  0  0  0  0
M  END
> <PUBCHEM_COMPOUND_CID>
11543350

> <PUBCHEM_COMPOUND_CANONICALIZED>
1

> <PUBCHEM_CACTVS_COMPLEXITY>
331

> <PUBCHEM_CACTVS_HBOND_ACCEPTOR>
2

> <PUBCHEM_CACTVS_HBOND_DONOR>
1

> <PUBCHEM_CACTVS_ROTATABLE_BOND>
0

> <PUBCHEM_CACTVS_SUBSKEYS>
AAADceB6IAAAAAAAAAAAAAAAAAAAAAAAAAA8eIEAAAAAAACxQAAAHgAACAAADCzBmAQwBoMAAgCAAiBCAACCAAAgIAAIiAAODIgIJiKCkROEcAhkwBGImAeQ0PMOoAABAAAQAABAAAIAACAAAAAAAAAAAA==

> <PUBCHEM_IUPAC_OPENEYE_NAME>
6,8,9,13b-tetrahydro-5H-isoquinolino[1,2-a]isoquinolin-3-ol

> <PUBCHEM_IUPAC_CAS_NAME>
6,8,9,13b-tetrahydro-5H-isoquinolino[1,2-a]isoquinolin-3-ol

> <PUBCHEM_IUPAC_NAME_MARKUP>
6,8,9,13<I>b</I>-tetrahydro-5<I>H</I>-isoquinolino[1,2-a]isoquinolin-3-ol

> <PUBCHEM_IUPAC_NAME>
6,8,9,13b-tetrahydro-5H-isoquinolino[1,2-a]isoquinolin-3-ol

> <PUBCHEM_IUPAC_SYSTEMATIC_NAME>
6,8,9,13b-tetrahydro-5H-isoquinolino[1,2-a]isoquinolin-3-ol

> <PUBCHEM_IUPAC_TRADITIONAL_NAME>
6,8,9,13b-tetrahydro-5H-isoquinolin[1,2-a]isoquinolin-3-ol

> <PUBCHEM_IUPAC_INCHI>
InChI=1S/C17H17NO/c19-14-5-6-16-13(11-14)8-10-18-9-7-12-3-1-2-4-15(12)17(16)18/h1-6,11,17,19H,7-10H2

> <PUBCHEM_IUPAC_INCHIKEY>
WKDIBUGWHRYVFS-UHFFFAOYSA-N

> <PUBCHEM_XLOGP3_AA>
3.2

> <PUBCHEM_EXACT_MASS>
251.131014166

> <PUBCHEM_MOLECULAR_FORMULA>
C17H17NO

> <PUBCHEM_MOLECULAR_WEIGHT>
251.32

> <PUBCHEM_OPENEYE_CAN_SMILES>
C1CN2CCC3=C(C2C4=CC=CC=C41)C=CC(=C3)O

> <PUBCHEM_OPENEYE_ISO_SMILES>
C1CN2CCC3=C(C2C4=CC=CC=C41)C=CC(=C3)O

> <PUBCHEM_CACTVS_TPSA>
23.5

> <PUBCHEM_MONOISOTOPIC_WEIGHT>
251.131014166

> <PUBCHEM_TOTAL_CHARGE>
0

> <PUBCHEM_HEAVY_ATOM_COUNT>
19

> <PUBCHEM_ATOM_DEF_STEREO_COUNT>
0

> <PUBCHEM_ATOM_UDEF_STEREO_COUNT>
1

> <PUBCHEM_BOND_DEF_STEREO_COUNT>
0

> <PUBCHEM_BOND_UDEF_STEREO_COUNT>
0

> <PUBCHEM_ISOTOPIC_ATOM_COUNT>
0

> <PUBCHEM_COMPONENT_COUNT>
1

> <PUBCHEM_CACTVS_TAUTO_COUNT>
-1

> <PUBCHEM_COORDINATE_TYPE>
1
5
255

> <PUBCHEM_BONDANNOTATIONS>
10  14  8
11  15  8
12  16  8
13  18  8
14  17  8
15  19  8
16  17  8
18  19  8
3  7  3
6  10  8
6  12  8
7  11  8
7  13  8

$$$$
