45486887
  -OEChem-09292322292D

 58 63  0     1  0  0  0  0  0999 V2000
   16.8952   -1.5456    0.0000 F   0  0  0  0  0  0  0  0  0  0  0  0
    6.5172   -1.4240    0.0000 O   0  0  0  0  0  0  0  0  0  0  0  0
    5.8777    0.5440    0.0000 O   0  0  0  0  0  0  0  0  0  0  0  0
    2.0000    1.2884    0.0000 O   0  0  0  0  0  0  0  0  0  0  0  0
   14.0235    1.3149    0.0000 N   0  0  0  0  0  0  0  0  0  0  0  0
    8.8694   -0.1265    0.0000 N   0  0  0  0  0  0  0  0  0  0  0  0
    2.6384   -0.3693    0.0000 N   0  0  0  0  0  0  0  0  0  0  0  0
   11.4961    0.1907    0.0000 C   0  0  3  0  0  0  0  0  0  0  0  0
   11.8180   -0.7999    0.0000 C   0  0  0  0  0  0  0  0  0  0  0  0
   12.1990    0.9594    0.0000 C   0  0  0  0  0  0  0  0  0  0  0  0
   12.8385   -1.0086    0.0000 C   0  0  0  0  0  0  0  0  0  0  0  0
   13.2144    0.7272    0.0000 C   0  0  0  0  0  0  0  0  0  0  0  0
   10.5188    0.4024    0.0000 C   0  0  0  0  0  0  0  0  0  0  0  0
   13.5235   -0.2239    0.0000 C   0  0  0  0  0  0  0  0  0  0  0  0
   14.5235   -0.2239    0.0000 C   0  0  0  0  0  0  0  0  0  0  0  0
    9.8468   -0.3382    0.0000 C   0  0  0  0  0  0  0  0  0  0  0  0
   14.8325    0.7272    0.0000 C   0  0  0  0  0  0  0  0  0  0  0  0
    8.1974   -0.8670    0.0000 C   0  0  0  0  0  0  0  0  0  0  0  0
    7.2201   -0.6554    0.0000 C   0  0  1  0  0  0  0  0  0  0  0  0
   15.2084   -1.0086    0.0000 C   0  0  0  0  0  0  0  0  0  0  0  0
   15.8479    0.9594    0.0000 C   0  0  0  0  0  0  0  0  0  0  0  0
    6.8982    0.3353    0.0000 C   0  0  0  0  0  0  0  0  0  0  0  0
   16.2289   -0.7999    0.0000 C   0  0  0  0  0  0  0  0  0  0  0  0
   16.5508    0.1907    0.0000 C   0  0  0  0  0  0  0  0  0  0  0  0
    5.1927   -0.2407    0.0000 C   0  0  0  0  0  0  0  0  0  0  0  0
    5.5018   -1.1918    0.0000 C   0  0  0  0  0  0  0  0  0  0  0  0
    4.2146   -0.0328    0.0000 C   0  0  0  0  0  0  0  0  0  0  0  0
    3.5455   -0.7760    0.0000 C   0  0  0  0  0  0  0  0  0  0  0  0
    3.7153    0.8268    0.0000 C   0  0  0  0  0  0  0  0  0  0  0  0
    4.8326   -1.9349    0.0000 C   0  0  0  0  0  0  0  0  0  0  0  0
    3.8545   -1.7270    0.0000 C   0  0  0  0  0  0  0  0  0  0  0  0
    2.7431    0.6193    0.0000 C   0  0  0  0  0  0  0  0  0  0  0  0
   11.0803   -0.2692    0.0000 H   0  0  0  0  0  0  0  0  0  0  0  0
   11.2042   -0.8878    0.0000 H   0  0  0  0  0  0  0  0  0  0  0  0
   11.7995   -1.4197    0.0000 H   0  0  0  0  0  0  0  0  0  0  0  0
   12.4387    1.5312    0.0000 H   0  0  0  0  0  0  0  0  0  0  0  0
   11.6766    1.2933    0.0000 H   0  0  0  0  0  0  0  0  0  0  0  0
   12.6122   -1.5858    0.0000 H   0  0  0  0  0  0  0  0  0  0  0  0
   13.3685   -1.3304    0.0000 H   0  0  0  0  0  0  0  0  0  0  0  0
   10.7532    0.9764    0.0000 H   0  0  0  0  0  0  0  0  0  0  0  0
    9.9942    0.7330    0.0000 H   0  0  0  0  0  0  0  0  0  0  0  0
    9.6123   -0.9121    0.0000 H   0  0  0  0  0  0  0  0  0  0  0  0
   10.3713   -0.6687    0.0000 H   0  0  0  0  0  0  0  0  0  0  0  0
   14.0235    1.9349    0.0000 H   0  0  0  0  0  0  0  0  0  0  0  0
    8.6801    0.4639    0.0000 H   0  0  0  0  0  0  0  0  0  0  0  0
    7.9630   -1.4410    0.0000 H   0  0  0  0  0  0  0  0  0  0  0  0
    8.7220   -1.1976    0.0000 H   0  0  0  0  0  0  0  0  0  0  0  0
    7.4083   -1.2461    0.0000 H   0  0  0  0  0  0  0  0  0  0  0  0
   15.0100   -1.5960    0.0000 H   0  0  0  0  0  0  0  0  0  0  0  0
   16.0326    1.5512    0.0000 H   0  0  0  0  0  0  0  0  0  0  0  0
    7.5120    0.4232    0.0000 H   0  0  0  0  0  0  0  0  0  0  0  0
    6.9167    0.9550    0.0000 H   0  0  0  0  0  0  0  0  0  0  0  0
   17.1568    0.3220    0.0000 H   0  0  0  0  0  0  0  0  0  0  0  0
    4.2812    1.0801    0.0000 H   0  0  0  0  0  0  0  0  0  0  0  0
    3.5229    1.4162    0.0000 H   0  0  0  0  0  0  0  0  0  0  0  0
    5.0242   -2.5246    0.0000 H   0  0  0  0  0  0  0  0  0  0  0  0
    3.4396   -2.1878    0.0000 H   0  0  0  0  0  0  0  0  0  0  0  0
    2.1009   -0.6784    0.0000 H   0  0  0  0  0  0  0  0  0  0  0  0
  1 23  1  0  0  0  0
  2 19  1  0  0  0  0
  2 26  1  0  0  0  0
  3 22  1  0  0  0  0
  3 25  1  0  0  0  0
  4 32  2  0  0  0  0
  5 12  1  0  0  0  0
  5 17  1  0  0  0  0
  5 44  1  0  0  0  0
  6 16  1  0  0  0  0
  6 18  1  0  0  0  0
  6 45  1  0  0  0  0
  7 28  1  0  0  0  0
  7 32  1  0  0  0  0
  7 58  1  0  0  0  0
  8  9  1  0  0  0  0
  8 10  1  0  0  0  0
  8 13  1  0  0  0  0
  8 33  1  0  0  0  0
  9 11  1  0  0  0  0
  9 34  1  0  0  0  0
  9 35  1  0  0  0  0
 10 12  1  0  0  0  0
 10 36  1  0  0  0  0
 10 37  1  0  0  0  0
 11 14  1  0  0  0  0
 11 38  1  0  0  0  0
 11 39  1  0  0  0  0
 12 14  2  0  0  0  0
 13 16  1  0  0  0  0
 13 40  1  0  0  0  0
 13 41  1  0  0  0  0
 14 15  1  0  0  0  0
 15 17  2  0  0  0  0
 15 20  1  0  0  0  0
 16 42  1  0  0  0  0
 16 43  1  0  0  0  0
 17 21  1  0  0  0  0
 19 18  1  6  0  0  0
 18 46  1  0  0  0  0
 18 47  1  0  0  0  0
 19 22  1  0  0  0  0
 19 48  1  0  0  0  0
 20 23  2  0  0  0  0
 20 49  1  0  0  0  0
 21 24  2  0  0  0  0
 21 50  1  0  0  0  0
 22 51  1  0  0  0  0
 22 52  1  0  0  0  0
 23 24  1  0  0  0  0
 24 53  1  0  0  0  0
 25 26  2  0  0  0  0
 25 27  1  0  0  0  0
 26 30  1  0  0  0  0
 27 28  2  0  0  0  0
 27 29  1  0  0  0  0
 28 31  1  0  0  0  0
 29 32  1  0  0  0  0
 29 54  1  0  0  0  0
 29 55  1  0  0  0  0
 30 31  2  0  0  0  0
 30 56  1  0  0  0  0
 31 57  1  0  0  0  0
M  END
> <PUBCHEM_COMPOUND_CID>
45486887

> <PUBCHEM_COMPOUND_CANONICALIZED>
1

> <PUBCHEM_CACTVS_COMPLEXITY>
695

> <PUBCHEM_CACTVS_HBOND_ACCEPTOR>
5

> <PUBCHEM_CACTVS_HBOND_DONOR>
3

> <PUBCHEM_CACTVS_ROTATABLE_BOND>
5

> <PUBCHEM_CACTVS_SUBSKEYS>
AAADceB7MQAAAAAAAAAAAAAAAAAAAWLAAAA0YMEAAAAAAFiR9AAAHwAQAAAADRzhng4wxvLJlACoAyVyVACCiCAhIiAImaE+7JgPJvLEtZuHOCrm1Bna6Ae+3PPOgEABAgAKQACAgAKEABSAAAAAAAAAAA==

> <PUBCHEM_IUPAC_OPENEYE_NAME>
(3S)-3-[[2-(6-fluoro-2,3,4,9-tetrahydro-1H-carbazol-2-yl)ethylamino]methyl]-2,3,7,9-tetrahydro-[1,4]dioxino[2,3-e]indol-8-one

> <PUBCHEM_IUPAC_CAS_NAME>
(3S)-3-[[2-(6-fluoro-2,3,4,9-tetrahydro-1H-carbazol-2-yl)ethylamino]methyl]-2,3,7,9-tetrahydro-[1,4]dioxino[2,3-e]indol-8-one

> <PUBCHEM_IUPAC_NAME_MARKUP>
(3<I>S</I>)-3-[[2-(6-fluoro-2,3,4,9-tetrahydro-1<I>H</I>-carbazol-2-yl)ethylamino]methyl]-2,3,7,9-tetrahydro-[1,4]dioxino[2,3-e]indol-8-one

> <PUBCHEM_IUPAC_NAME>
(3S)-3-[[2-(6-fluoro-2,3,4,9-tetrahydro-1H-carbazol-2-yl)ethylamino]methyl]-2,3,7,9-tetrahydro-[1,4]dioxino[2,3-e]indol-8-one

> <PUBCHEM_IUPAC_SYSTEMATIC_NAME>
(3S)-3-[[2-(6-fluoranyl-2,3,4,9-tetrahydro-1H-carbazol-2-yl)ethylamino]methyl]-2,3,7,9-tetrahydro-[1,4]dioxino[2,3-e]indol-8-one

> <PUBCHEM_IUPAC_TRADITIONAL_NAME>
(3S)-3-[[2-(6-fluoro-2,3,4,9-tetrahydro-1H-carbazol-2-yl)ethylamino]methyl]-2,3,7,9-tetrahydro-[1,4]dioxin[2,3-e]indol-8-one

> <PUBCHEM_IUPAC_INCHI>
InChI=1S/C25H26FN3O3/c26-15-2-4-20-18(10-15)17-3-1-14(9-22(17)28-20)7-8-27-12-16-13-31-25-19-11-24(30)29-21(19)5-6-23(25)32-16/h2,4-6,10,14,16,27-28H,1,3,7-9,11-13H2,(H,29,30)/t14?,16-/m0/s1

> <PUBCHEM_IUPAC_INCHIKEY>
NPLIFQHCPLOMFR-WMCAAGNKSA-N

> <PUBCHEM_XLOGP3_AA>
3.5

> <PUBCHEM_EXACT_MASS>
435.19581986

> <PUBCHEM_MOLECULAR_FORMULA>
C25H26FN3O3

> <PUBCHEM_MOLECULAR_WEIGHT>
435.5

> <PUBCHEM_OPENEYE_CAN_SMILES>
C1CC2=C(CC1CCNCC3COC4=C(O3)C=CC5=C4CC(=O)N5)NC6=C2C=C(C=C6)F

> <PUBCHEM_OPENEYE_ISO_SMILES>
C1CC2=C(CC1CCNC[C@H]3COC4=C(O3)C=CC5=C4CC(=O)N5)NC6=C2C=C(C=C6)F

> <PUBCHEM_CACTVS_TPSA>
75.4

> <PUBCHEM_MONOISOTOPIC_WEIGHT>
435.19581986

> <PUBCHEM_TOTAL_CHARGE>
0

> <PUBCHEM_HEAVY_ATOM_COUNT>
32

> <PUBCHEM_ATOM_DEF_STEREO_COUNT>
1

> <PUBCHEM_ATOM_UDEF_STEREO_COUNT>
1

> <PUBCHEM_BOND_DEF_STEREO_COUNT>
0

> <PUBCHEM_BOND_UDEF_STEREO_COUNT>
0

> <PUBCHEM_ISOTOPIC_ATOM_COUNT>
0

> <PUBCHEM_COMPONENT_COUNT>
1

> <PUBCHEM_CACTVS_TAUTO_COUNT>
-1

> <PUBCHEM_COORDINATE_TYPE>
1
5
255

> <PUBCHEM_BONDANNOTATIONS>
12  14  8
14  15  8
15  17  8
15  20  8
17  21  8
19  18  6
20  23  8
21  24  8
23  24  8
25  26  8
25  27  8
26  30  8
27  28  8
28  31  8
30  31  8
5  12  8
5  17  8
8  13  3

$$$$
