44336055
  -OEChem-09292322152D

 56 59  0     1  0  0  0  0  0999 V2000
    8.9962   -4.7673    0.0000 Cl  0  0  0  0  0  0  0  0  0  0  0  0
    3.8000    1.2327    0.0000 O   0  0  0  0  0  0  0  0  0  0  0  0
    5.5321    0.2327    0.0000 N   0  0  0  0  0  0  0  0  0  0  0  0
    4.6660    2.7327    0.0000 N   0  0  0  0  0  0  0  0  0  0  0  0
    5.5321   -1.7673    0.0000 N   0  0  0  0  0  0  0  0  0  0  0  0
    5.5321    3.2327    0.0000 C   0  0  3  0  0  0  0  0  0  0  0  0
    4.6660   -0.2673    0.0000 C   0  0  0  0  0  0  0  0  0  0  0  0
    6.3981   -0.2673    0.0000 C   0  0  0  0  0  0  0  0  0  0  0  0
    4.6660   -1.2673    0.0000 C   0  0  0  0  0  0  0  0  0  0  0  0
    6.3981   -1.2673    0.0000 C   0  0  0  0  0  0  0  0  0  0  0  0
    5.5321    4.2327    0.0000 C   0  0  0  0  0  0  0  0  0  0  0  0
    5.5321    1.2327    0.0000 C   0  0  0  0  0  0  0  0  0  0  0  0
    4.6660    4.7327    0.0000 C   0  0  0  0  0  0  0  0  0  0  0  0
    3.8000    3.2327    0.0000 C   0  0  0  0  0  0  0  0  0  0  0  0
    4.6660    1.7327    0.0000 C   0  0  0  0  0  0  0  0  0  0  0  0
    3.8000    4.2327    0.0000 C   0  0  0  0  0  0  0  0  0  0  0  0
    5.5321   -2.7673    0.0000 C   0  0  0  0  0  0  0  0  0  0  0  0
    6.3981    2.7327    0.0000 C   0  0  0  0  0  0  0  0  0  0  0  0
    2.9061    2.6980    0.0000 C   0  0  0  0  0  0  0  0  0  0  0  0
    2.9061    4.7673    0.0000 C   0  0  0  0  0  0  0  0  0  0  0  0
    6.3981   -3.2673    0.0000 C   0  0  0  0  0  0  0  0  0  0  0  0
    2.0000    3.2118    0.0000 C   0  0  0  0  0  0  0  0  0  0  0  0
    2.0000    4.2535    0.0000 C   0  0  0  0  0  0  0  0  0  0  0  0
    7.2641   -2.7673    0.0000 C   0  0  0  0  0  0  0  0  0  0  0  0
    6.3981   -4.2673    0.0000 C   0  0  0  0  0  0  0  0  0  0  0  0
    8.1301   -3.2673    0.0000 C   0  0  0  0  0  0  0  0  0  0  0  0
    7.2641   -4.7673    0.0000 C   0  0  0  0  0  0  0  0  0  0  0  0
    8.1301   -4.2673    0.0000 C   0  0  0  0  0  0  0  0  0  0  0  0
    5.5321    2.6127    0.0000 H   0  0  0  0  0  0  0  0  0  0  0  0
    4.4540    0.3153    0.0000 H   0  0  0  0  0  0  0  0  0  0  0  0
    4.0555   -0.3750    0.0000 H   0  0  0  0  0  0  0  0  0  0  0  0
    7.0087   -0.3750    0.0000 H   0  0  0  0  0  0  0  0  0  0  0  0
    6.6101    0.3153    0.0000 H   0  0  0  0  0  0  0  0  0  0  0  0
    4.0555   -1.1597    0.0000 H   0  0  0  0  0  0  0  0  0  0  0  0
    4.4540   -1.8499    0.0000 H   0  0  0  0  0  0  0  0  0  0  0  0
    6.6101   -1.8499    0.0000 H   0  0  0  0  0  0  0  0  0  0  0  0
    7.0087   -1.1597    0.0000 H   0  0  0  0  0  0  0  0  0  0  0  0
    6.1426    4.1250    0.0000 H   0  0  0  0  0  0  0  0  0  0  0  0
    5.7441    4.8153    0.0000 H   0  0  0  0  0  0  0  0  0  0  0  0
    6.1426    1.1250    0.0000 H   0  0  0  0  0  0  0  0  0  0  0  0
    5.7441    1.8153    0.0000 H   0  0  0  0  0  0  0  0  0  0  0  0
    5.0646    5.2076    0.0000 H   0  0  0  0  0  0  0  0  0  0  0  0
    4.2675    5.2076    0.0000 H   0  0  0  0  0  0  0  0  0  0  0  0
    4.9215   -2.6597    0.0000 H   0  0  0  0  0  0  0  0  0  0  0  0
    5.3200   -3.3499    0.0000 H   0  0  0  0  0  0  0  0  0  0  0  0
    6.0881    2.1957    0.0000 H   0  0  0  0  0  0  0  0  0  0  0  0
    6.9350    2.4227    0.0000 H   0  0  0  0  0  0  0  0  0  0  0  0
    6.7081    3.2696    0.0000 H   0  0  0  0  0  0  0  0  0  0  0  0
    2.9132    2.0780    0.0000 H   0  0  0  0  0  0  0  0  0  0  0  0
    2.9132    5.3873    0.0000 H   0  0  0  0  0  0  0  0  0  0  0  0
    1.4643    2.8998    0.0000 H   0  0  0  0  0  0  0  0  0  0  0  0
    1.4643    4.5656    0.0000 H   0  0  0  0  0  0  0  0  0  0  0  0
    7.2641   -2.1473    0.0000 H   0  0  0  0  0  0  0  0  0  0  0  0
    5.8612   -4.5773    0.0000 H   0  0  0  0  0  0  0  0  0  0  0  0
    8.6671   -2.9573    0.0000 H   0  0  0  0  0  0  0  0  0  0  0  0
    7.2641   -5.3873    0.0000 H   0  0  0  0  0  0  0  0  0  0  0  0
  1 28  1  0  0  0  0
  2 15  2  0  0  0  0
  3  7  1  0  0  0  0
  3  8  1  0  0  0  0
  3 12  1  0  0  0  0
  4  6  1  0  0  0  0
  4 14  1  0  0  0  0
  4 15  1  0  0  0  0
  5  9  1  0  0  0  0
  5 10  1  0  0  0  0
  5 17  1  0  0  0  0
  6 11  1  0  0  0  0
  6 18  1  0  0  0  0
  6 29  1  0  0  0  0
  7  9  1  0  0  0  0
  7 30  1  0  0  0  0
  7 31  1  0  0  0  0
  8 10  1  0  0  0  0
  8 32  1  0  0  0  0
  8 33  1  0  0  0  0
  9 34  1  0  0  0  0
  9 35  1  0  0  0  0
 10 36  1  0  0  0  0
 10 37  1  0  0  0  0
 11 13  1  0  0  0  0
 11 38  1  0  0  0  0
 11 39  1  0  0  0  0
 12 15  1  0  0  0  0
 12 40  1  0  0  0  0
 12 41  1  0  0  0  0
 13 16  1  0  0  0  0
 13 42  1  0  0  0  0
 13 43  1  0  0  0  0
 14 16  1  0  0  0  0
 14 19  2  0  0  0  0
 16 20  2  0  0  0  0
 17 21  1  0  0  0  0
 17 44  1  0  0  0  0
 17 45  1  0  0  0  0
 18 46  1  0  0  0  0
 18 47  1  0  0  0  0
 18 48  1  0  0  0  0
 19 22  1  0  0  0  0
 19 49  1  0  0  0  0
 20 23  1  0  0  0  0
 20 50  1  0  0  0  0
 21 24  2  0  0  0  0
 21 25  1  0  0  0  0
 22 23  2  0  0  0  0
 22 51  1  0  0  0  0
 23 52  1  0  0  0  0
 24 26  1  0  0  0  0
 24 53  1  0  0  0  0
 25 27  2  0  0  0  0
 25 54  1  0  0  0  0
 26 28  2  0  0  0  0
 26 55  1  0  0  0  0
 27 28  1  0  0  0  0
 27 56  1  0  0  0  0
M  END
> <PUBCHEM_COMPOUND_CID>
44336055

> <PUBCHEM_COMPOUND_CANONICALIZED>
1

> <PUBCHEM_CACTVS_COMPLEXITY>
514

> <PUBCHEM_CACTVS_HBOND_ACCEPTOR>
3

> <PUBCHEM_CACTVS_HBOND_DONOR>
0

> <PUBCHEM_CACTVS_ROTATABLE_BOND>
4

> <PUBCHEM_CACTVS_SUBSKEYS>
AAADceB7IAAEAAAAAAAAAAAAAAAAAAAAAAA8eIEAAAAAAACxQAAAHgIAAAAADCrBmCQywIMAAACIAiVSUACCAAAhBwAIiACIZogIYCLBk7GUIAhghgDIyAcQgIAOBAAAAAACAAAIAAAAAAQAAAAAAAAAAA==

> <PUBCHEM_IUPAC_OPENEYE_NAME>
2-[4-[(4-chlorophenyl)methyl]piperazin-1-yl]-1-(2-methyl-3,4-dihydro-2H-quinolin-1-yl)ethanone

> <PUBCHEM_IUPAC_CAS_NAME>
2-[4-[(4-chlorophenyl)methyl]-1-piperazinyl]-1-(2-methyl-3,4-dihydro-2H-quinolin-1-yl)ethanone

> <PUBCHEM_IUPAC_NAME_MARKUP>
2-[4-[(4-chlorophenyl)methyl]piperazin-1-yl]-1-(2-methyl-3,4-dihydro-2<I>H</I>-quinolin-1-yl)ethanone

> <PUBCHEM_IUPAC_NAME>
2-[4-[(4-chlorophenyl)methyl]piperazin-1-yl]-1-(2-methyl-3,4-dihydro-2H-quinolin-1-yl)ethanone

> <PUBCHEM_IUPAC_SYSTEMATIC_NAME>
2-[4-[(4-chlorophenyl)methyl]piperazin-1-yl]-1-(2-methyl-3,4-dihydro-2H-quinolin-1-yl)ethanone

> <PUBCHEM_IUPAC_TRADITIONAL_NAME>
2-[4-(4-chlorobenzyl)piperazino]-1-(2-methyl-3,4-dihydro-2H-quinolin-1-yl)ethanone

> <PUBCHEM_IUPAC_INCHI>
InChI=1S/C23H28ClN3O/c1-18-6-9-20-4-2-3-5-22(20)27(18)23(28)17-26-14-12-25(13-15-26)16-19-7-10-21(24)11-8-19/h2-5,7-8,10-11,18H,6,9,12-17H2,1H3

> <PUBCHEM_IUPAC_INCHIKEY>
UFBREGGYAJBGQB-UHFFFAOYSA-N

> <PUBCHEM_XLOGP3_AA>
4.1

> <PUBCHEM_EXACT_MASS>
397.1920902

> <PUBCHEM_MOLECULAR_FORMULA>
C23H28ClN3O

> <PUBCHEM_MOLECULAR_WEIGHT>
397.9

> <PUBCHEM_OPENEYE_CAN_SMILES>
CC1CCC2=CC=CC=C2N1C(=O)CN3CCN(CC3)CC4=CC=C(C=C4)Cl

> <PUBCHEM_OPENEYE_ISO_SMILES>
CC1CCC2=CC=CC=C2N1C(=O)CN3CCN(CC3)CC4=CC=C(C=C4)Cl

> <PUBCHEM_CACTVS_TPSA>
26.8

> <PUBCHEM_MONOISOTOPIC_WEIGHT>
397.1920902

> <PUBCHEM_TOTAL_CHARGE>
0

> <PUBCHEM_HEAVY_ATOM_COUNT>
28

> <PUBCHEM_ATOM_DEF_STEREO_COUNT>
0

> <PUBCHEM_ATOM_UDEF_STEREO_COUNT>
1

> <PUBCHEM_BOND_DEF_STEREO_COUNT>
0

> <PUBCHEM_BOND_UDEF_STEREO_COUNT>
0

> <PUBCHEM_ISOTOPIC_ATOM_COUNT>
0

> <PUBCHEM_COMPONENT_COUNT>
1

> <PUBCHEM_CACTVS_TAUTO_COUNT>
-1

> <PUBCHEM_COORDINATE_TYPE>
1
5
255

> <PUBCHEM_BONDANNOTATIONS>
14  16  8
14  19  8
16  20  8
19  22  8
20  23  8
21  24  8
21  25  8
22  23  8
24  26  8
25  27  8
26  28  8
27  28  8
6  18  3

$$$$
