72700475
  -OEChem-09292322382D

 57 60  0     0  0  0  0  0  0999 V2000
    4.6783   -5.6659    0.0000 S   0  0  0  0  0  0  0  0  0  0  0  0
    9.7419    5.8612    0.0000 F   0  0  0  0  0  0  0  0  0  0  0  0
   10.3818    4.6000    0.0000 F   0  0  0  0  0  0  0  0  0  0  0  0
    8.4807    5.2213    0.0000 F   0  0  0  0  0  0  0  0  0  0  0  0
    9.7884    3.2158    0.0000 O   0  0  0  0  0  0  0  0  0  0  0  0
    5.6103   -1.2049    0.0000 N   0  0  0  0  0  0  0  0  0  0  0  0
    8.1421    3.7539    0.0000 N   0  0  0  0  0  0  0  0  0  0  0  0
    4.9889   -3.1059    0.0000 N   0  0  0  0  0  0  0  0  0  0  0  0
    5.2619   -4.8612    0.0000 N   0  0  0  0  0  0  0  0  0  0  0  0
    7.2101    0.9024    0.0000 C   0  0  0  0  0  0  0  0  0  0  0  0
    8.1886    1.1086    0.0000 C   0  0  0  0  0  0  0  0  0  0  0  0
    6.5422    1.6467    0.0000 C   0  0  0  0  0  0  0  0  0  0  0  0
    7.8314    2.8034    0.0000 C   0  0  0  0  0  0  0  0  0  0  0  0
    8.4993    2.0591    0.0000 C   0  0  0  0  0  0  0  0  0  0  0  0
    6.8529    2.5972    0.0000 C   0  0  0  0  0  0  0  0  0  0  0  0
    6.8994   -0.0482    0.0000 C   0  0  0  0  0  0  0  0  0  0  0  0
    5.9209   -0.2544    0.0000 C   0  0  0  0  0  0  0  0  0  0  0  0
    4.6318   -1.4111    0.0000 C   0  0  0  0  0  0  0  0  0  0  0  0
    6.2781   -1.9492    0.0000 C   0  0  0  0  0  0  0  0  0  0  0  0
    4.3211   -2.3616    0.0000 C   0  0  0  0  0  0  0  0  0  0  0  0
    5.9674   -2.8997    0.0000 C   0  0  0  0  0  0  0  0  0  0  0  0
    4.6783   -4.0564    0.0000 C   0  0  0  0  0  0  0  0  0  0  0  0
    9.1206    3.9602    0.0000 C   0  0  0  0  0  0  0  0  0  0  0  0
    3.7320   -4.3612    0.0000 C   0  0  0  0  0  0  0  0  0  0  0  0
    9.4312    4.9107    0.0000 C   0  0  0  0  0  0  0  0  0  0  0  0
    3.7320   -5.3612    0.0000 C   0  0  0  0  0  0  0  0  0  0  0  0
    2.8660   -3.8612    0.0000 C   0  0  0  0  0  0  0  0  0  0  0  0
    2.8660   -5.8612    0.0000 C   0  0  0  0  0  0  0  0  0  0  0  0
    2.0000   -4.3612    0.0000 C   0  0  0  0  0  0  0  0  0  0  0  0
    2.0000   -5.3612    0.0000 C   0  0  0  0  0  0  0  0  0  0  0  0
    7.6242    0.4409    0.0000 H   0  0  0  0  0  0  0  0  0  0  0  0
    8.2092    0.4889    0.0000 H   0  0  0  0  0  0  0  0  0  0  0  0
    8.8024    1.0212    0.0000 H   0  0  0  0  0  0  0  0  0  0  0  0
    5.9953    1.9387    0.0000 H   0  0  0  0  0  0  0  0  0  0  0  0
    6.1597    1.1588    0.0000 H   0  0  0  0  0  0  0  0  0  0  0  0
    8.4381    2.9313    0.0000 H   0  0  0  0  0  0  0  0  0  0  0  0
    6.9200   -0.6678    0.0000 H   0  0  0  0  0  0  0  0  0  0  0  0
    7.5132   -0.1355    0.0000 H   0  0  0  0  0  0  0  0  0  0  0  0
    9.0462    1.7671    0.0000 H   0  0  0  0  0  0  0  0  0  0  0  0
    8.8818    2.5470    0.0000 H   0  0  0  0  0  0  0  0  0  0  0  0
    6.8323    3.2168    0.0000 H   0  0  0  0  0  0  0  0  0  0  0  0
    6.2391    2.6845    0.0000 H   0  0  0  0  0  0  0  0  0  0  0  0
    5.9004    0.3653    0.0000 H   0  0  0  0  0  0  0  0  0  0  0  0
    5.3071   -0.1670    0.0000 H   0  0  0  0  0  0  0  0  0  0  0  0
    4.6112   -0.7915    0.0000 H   0  0  0  0  0  0  0  0  0  0  0  0
    4.0179   -1.3238    0.0000 H   0  0  0  0  0  0  0  0  0  0  0  0
    6.8250   -2.2412    0.0000 H   0  0  0  0  0  0  0  0  0  0  0  0
    6.6607   -1.4613    0.0000 H   0  0  0  0  0  0  0  0  0  0  0  0
    7.7280    4.2154    0.0000 H   0  0  0  0  0  0  0  0  0  0  0  0
    3.7742   -2.0696    0.0000 H   0  0  0  0  0  0  0  0  0  0  0  0
    3.9385   -2.8495    0.0000 H   0  0  0  0  0  0  0  0  0  0  0  0
    5.9880   -3.5194    0.0000 H   0  0  0  0  0  0  0  0  0  0  0  0
    6.5812   -2.9871    0.0000 H   0  0  0  0  0  0  0  0  0  0  0  0
    2.8660   -3.2412    0.0000 H   0  0  0  0  0  0  0  0  0  0  0  0
    2.8660   -6.4812    0.0000 H   0  0  0  0  0  0  0  0  0  0  0  0
    1.4631   -4.0512    0.0000 H   0  0  0  0  0  0  0  0  0  0  0  0
    1.4631   -5.6712    0.0000 H   0  0  0  0  0  0  0  0  0  0  0  0
  1  9  1  0  0  0  0
  1 26  1  0  0  0  0
  2 25  1  0  0  0  0
  3 25  1  0  0  0  0
  4 25  1  0  0  0  0
  5 23  2  0  0  0  0
  6 17  1  0  0  0  0
  6 18  1  0  0  0  0
  6 19  1  0  0  0  0
  7 13  1  0  0  0  0
  7 23  1  0  0  0  0
  7 49  1  0  0  0  0
  8 20  1  0  0  0  0
  8 21  1  0  0  0  0
  8 22  1  0  0  0  0
  9 22  2  0  0  0  0
 10 11  1  0  0  0  0
 10 12  1  0  0  0  0
 10 16  1  0  0  0  0
 10 31  1  0  0  0  0
 11 14  1  0  0  0  0
 11 32  1  0  0  0  0
 11 33  1  0  0  0  0
 12 15  1  0  0  0  0
 12 34  1  0  0  0  0
 12 35  1  0  0  0  0
 13 14  1  0  0  0  0
 13 15  1  0  0  0  0
 13 36  1  0  0  0  0
 14 39  1  0  0  0  0
 14 40  1  0  0  0  0
 15 41  1  0  0  0  0
 15 42  1  0  0  0  0
 16 17  1  0  0  0  0
 16 37  1  0  0  0  0
 16 38  1  0  0  0  0
 17 43  1  0  0  0  0
 17 44  1  0  0  0  0
 18 20  1  0  0  0  0
 18 45  1  0  0  0  0
 18 46  1  0  0  0  0
 19 21  1  0  0  0  0
 19 47  1  0  0  0  0
 19 48  1  0  0  0  0
 20 50  1  0  0  0  0
 20 51  1  0  0  0  0
 21 52  1  0  0  0  0
 21 53  1  0  0  0  0
 22 24  1  0  0  0  0
 23 25  1  0  0  0  0
 24 26  1  0  0  0  0
 24 27  2  0  0  0  0
 26 28  2  0  0  0  0
 27 29  1  0  0  0  0
 27 54  1  0  0  0  0
 28 30  1  0  0  0  0
 28 55  1  0  0  0  0
 29 30  2  0  0  0  0
 29 56  1  0  0  0  0
 30 57  1  0  0  0  0
M  END
> <PUBCHEM_COMPOUND_CID>
72700475

> <PUBCHEM_COMPOUND_CANONICALIZED>
1

> <PUBCHEM_CACTVS_COMPLEXITY>
577

> <PUBCHEM_CACTVS_HBOND_ACCEPTOR>
8

> <PUBCHEM_CACTVS_HBOND_DONOR>
1

> <PUBCHEM_CACTVS_ROTATABLE_BOND>
5

> <PUBCHEM_CACTVS_SUBSKEYS>
AAADceB7oYBAAAAAAAAAAAAAAAAAAWAAAAA8YIAAAAAAAFgB8AAAHwQQQAAADSjB2hQxsdPAAACsAiNycACDABAhAABJmLgoRJiIYKLAmZGUIAxglgLIyAcQgIAOAAAAAAAEAAAQAAAAAAgAAAAAAAAAAA==

> <PUBCHEM_IUPAC_OPENEYE_NAME>
N-[4-[2-[4-(1,2-benzothiazol-3-yl)piperazin-1-yl]ethyl]cyclohexyl]-2,2,2-trifluoro-acetamide

> <PUBCHEM_IUPAC_CAS_NAME>
N-[4-[2-[4-(1,2-benzothiazol-3-yl)-1-piperazinyl]ethyl]cyclohexyl]-2,2,2-trifluoroacetamide

> <PUBCHEM_IUPAC_NAME_MARKUP>
<I>N</I>-[4-[2-[4-(1,2-benzothiazol-3-yl)piperazin-1-yl]ethyl]cyclohexyl]-2,2,2-trifluoroacetamide

> <PUBCHEM_IUPAC_NAME>
N-[4-[2-[4-(1,2-benzothiazol-3-yl)piperazin-1-yl]ethyl]cyclohexyl]-2,2,2-trifluoroacetamide

> <PUBCHEM_IUPAC_SYSTEMATIC_NAME>
N-[4-[2-[4-(1,2-benzothiazol-3-yl)piperazin-1-yl]ethyl]cyclohexyl]-2,2,2-tris(fluoranyl)ethanamide

> <PUBCHEM_IUPAC_TRADITIONAL_NAME>
N-[4-[2-[4-(1,2-benzothiazol-3-yl)piperazino]ethyl]cyclohexyl]-2,2,2-trifluoro-acetamide

> <PUBCHEM_IUPAC_INCHI>
InChI=1S/C21H27F3N4OS/c22-21(23,24)20(29)25-16-7-5-15(6-8-16)9-10-27-11-13-28(14-12-27)19-17-3-1-2-4-18(17)30-26-19/h1-4,15-16H,5-14H2,(H,25,29)

> <PUBCHEM_IUPAC_INCHIKEY>
MZBZALUTJALVLT-UHFFFAOYSA-N

> <PUBCHEM_XLOGP3_AA>
4.9

> <PUBCHEM_EXACT_MASS>
440.18576716

> <PUBCHEM_MOLECULAR_FORMULA>
C21H27F3N4OS

> <PUBCHEM_MOLECULAR_WEIGHT>
440.5

> <PUBCHEM_OPENEYE_CAN_SMILES>
C1CC(CCC1CCN2CCN(CC2)C3=NSC4=CC=CC=C43)NC(=O)C(F)(F)F

> <PUBCHEM_OPENEYE_ISO_SMILES>
C1CC(CCC1CCN2CCN(CC2)C3=NSC4=CC=CC=C43)NC(=O)C(F)(F)F

> <PUBCHEM_CACTVS_TPSA>
76.7

> <PUBCHEM_MONOISOTOPIC_WEIGHT>
440.18576716

> <PUBCHEM_TOTAL_CHARGE>
0

> <PUBCHEM_HEAVY_ATOM_COUNT>
30

> <PUBCHEM_ATOM_DEF_STEREO_COUNT>
0

> <PUBCHEM_ATOM_UDEF_STEREO_COUNT>
0

> <PUBCHEM_BOND_DEF_STEREO_COUNT>
0

> <PUBCHEM_BOND_UDEF_STEREO_COUNT>
0

> <PUBCHEM_ISOTOPIC_ATOM_COUNT>
0

> <PUBCHEM_COMPONENT_COUNT>
1

> <PUBCHEM_CACTVS_TAUTO_COUNT>
-1

> <PUBCHEM_COORDINATE_TYPE>
1
5
255

> <PUBCHEM_BONDANNOTATIONS>
1  26  8
1  9  8
22  24  8
24  26  8
24  27  8
26  28  8
27  29  8
28  30  8
29  30  8
9  22  8

$$$$
