45379515
  -OEChem-09292322292D

 39 43  0     1  0  0  0  0  0999 V2000
    4.7438    1.9110    0.0000 N   0  0  3  0  0  0  0  0  0  0  0  0
    7.2129    0.2439    0.0000 N   0  0  0  0  0  0  0  0  0  0  0  0
    4.7438    0.9110    0.0000 C   0  0  3  0  0  0  0  0  0  0  0  0
    5.6098    0.4110    0.0000 C   0  0  0  0  0  0  0  0  0  0  0  0
    5.6098    2.4110    0.0000 C   0  0  0  0  0  0  0  0  0  0  0  0
    3.8498    2.4457    0.0000 C   0  0  0  0  0  0  0  0  0  0  0  0
    6.4758    0.9110    0.0000 C   0  0  0  0  0  0  0  0  0  0  0  0
    3.8498    0.3764    0.0000 C   0  0  0  0  0  0  0  0  0  0  0  0
    6.4758    1.9110    0.0000 C   0  0  0  0  0  0  0  0  0  0  0  0
    2.9438    1.9318    0.0000 C   0  0  0  0  0  0  0  0  0  0  0  0
    2.9438    0.8902    0.0000 C   0  0  0  0  0  0  0  0  0  0  0  0
    5.8190   -0.5608    0.0000 C   0  0  0  0  0  0  0  0  0  0  0  0
    6.8078   -0.6638    0.0000 C   0  0  0  0  0  0  0  0  0  0  0  0
    3.8749   -0.7083    0.0000 C   0  0  0  0  0  0  0  0  0  0  0  0
    2.0000    0.3550    0.0000 C   0  0  0  0  0  0  0  0  0  0  0  0
    5.1983   -1.3896    0.0000 C   0  0  0  0  0  0  0  0  0  0  0  0
    7.2443   -1.6028    0.0000 C   0  0  0  0  0  0  0  0  0  0  0  0
    2.9438   -1.2652    0.0000 C   0  0  0  0  0  0  0  0  0  0  0  0
    2.0000   -0.7300    0.0000 C   0  0  0  0  0  0  0  0  0  0  0  0
    5.6130   -2.3384    0.0000 C   0  0  0  0  0  0  0  0  0  0  0  0
    6.6428   -2.4457    0.0000 C   0  0  0  0  0  0  0  0  0  0  0  0
    4.7486    0.2911    0.0000 H   0  0  0  0  0  0  0  0  0  0  0  0
    6.0084    2.8860    0.0000 H   0  0  0  0  0  0  0  0  0  0  0  0
    5.2113    2.8860    0.0000 H   0  0  0  0  0  0  0  0  0  0  0  0
    4.2544    2.9155    0.0000 H   0  0  0  0  0  0  0  0  0  0  0  0
    3.4562    2.9247    0.0000 H   0  0  0  0  0  0  0  0  0  0  0  0
    7.0864    1.8034    0.0000 H   0  0  0  0  0  0  0  0  0  0  0  0
    6.6879    2.4936    0.0000 H   0  0  0  0  0  0  0  0  0  0  0  0
    2.7347    2.5155    0.0000 H   0  0  0  0  0  0  0  0  0  0  0  0
    2.3329    1.8258    0.0000 H   0  0  0  0  0  0  0  0  0  0  0  0
    7.8195    0.3718    0.0000 H   0  0  0  0  0  0  0  0  0  0  0  0
    4.4178   -1.0079    0.0000 H   0  0  0  0  0  0  0  0  0  0  0  0
    1.4643    0.6670    0.0000 H   0  0  0  0  0  0  0  0  0  0  0  0
    4.5824   -1.3182    0.0000 H   0  0  0  0  0  0  0  0  0  0  0  0
    7.8616   -1.6599    0.0000 H   0  0  0  0  0  0  0  0  0  0  0  0
    2.9510   -1.8852    0.0000 H   0  0  0  0  0  0  0  0  0  0  0  0
    1.4643   -1.0421    0.0000 H   0  0  0  0  0  0  0  0  0  0  0  0
    5.2470   -2.8388    0.0000 H   0  0  0  0  0  0  0  0  0  0  0  0
    6.8977   -3.0109    0.0000 H   0  0  0  0  0  0  0  0  0  0  0  0
  1  3  1  0  0  0  0
  1  5  1  0  0  0  0
  1  6  1  0  0  0  0
  2  7  1  0  0  0  0
  2 13  1  0  0  0  0
  2 31  1  0  0  0  0
  3  4  1  0  0  0  0
  3  8  1  0  0  0  0
  3 22  1  0  0  0  0
  4  7  2  0  0  0  0
  4 12  1  0  0  0  0
  5  9  1  0  0  0  0
  5 23  1  0  0  0  0
  5 24  1  0  0  0  0
  6 10  1  0  0  0  0
  6 25  1  0  0  0  0
  6 26  1  0  0  0  0
  7  9  1  0  0  0  0
  8 11  1  0  0  0  0
  8 14  2  0  0  0  0
  9 27  1  0  0  0  0
  9 28  1  0  0  0  0
 10 11  1  0  0  0  0
 10 29  1  0  0  0  0
 10 30  1  0  0  0  0
 11 15  2  0  0  0  0
 12 13  1  0  0  0  0
 12 16  2  0  0  0  0
 13 17  2  0  0  0  0
 14 18  1  0  0  0  0
 14 32  1  0  0  0  0
 15 19  1  0  0  0  0
 15 33  1  0  0  0  0
 16 20  1  0  0  0  0
 16 34  1  0  0  0  0
 17 21  1  0  0  0  0
 17 35  1  0  0  0  0
 18 19  2  0  0  0  0
 18 36  1  0  0  0  0
 19 37  1  0  0  0  0
 20 21  2  0  0  0  0
 20 38  1  0  0  0  0
 21 39  1  0  0  0  0
M  END
> <PUBCHEM_COMPOUND_CID>
45379515

> <PUBCHEM_COMPOUND_CANONICALIZED>
1

> <PUBCHEM_CACTVS_COMPLEXITY>
395

> <PUBCHEM_CACTVS_HBOND_ACCEPTOR>
1

> <PUBCHEM_CACTVS_HBOND_DONOR>
1

> <PUBCHEM_CACTVS_ROTATABLE_BOND>
0

> <PUBCHEM_CACTVS_SUBSKEYS>
AAADceB7AAAAAAAAAAAAAAAAAAAAAWAAAAA8eIEAAAAAAFix9AAAHAAQAAAADCjBHgQwwPPJkACgAyRiRACCgCAhAiAImSA4ZJgIIOLA0ZGEIAhgkADIyAcQgMAOgAAAAAASAAAAAAAAACQAAAAAAAAAAA==

> <PUBCHEM_IUPAC_OPENEYE_NAME>
9,13-diazapentacyclo[11.8.0.02,10.03,8.016,21]henicosa-2(10),3,5,7,16,18,20-heptaene

> <PUBCHEM_IUPAC_CAS_NAME>
9,13-diazapentacyclo[11.8.0.02,10.03,8.016,21]heneicosa-2(10),3,5,7,16,18,20-heptaene

> <PUBCHEM_IUPAC_NAME_MARKUP>
9,13-diazapentacyclo[11.8.0.0<SUP>2,10</SUP>.0<SUP>3,8</SUP>.0<SUP>16,21</SUP>]henicosa-2(10),3,5,7,16,18,20-heptaene

> <PUBCHEM_IUPAC_NAME>
9,13-diazapentacyclo[11.8.0.02,10.03,8.016,21]henicosa-2(10),3,5,7,16,18,20-heptaene

> <PUBCHEM_IUPAC_SYSTEMATIC_NAME>
9,13-diazapentacyclo[11.8.0.02,10.03,8.016,21]henicosa-2(10),3,5,7,16,18,20-heptaene

> <PUBCHEM_IUPAC_TRADITIONAL_NAME>
9,13-diazapentacyclo[11.8.0.02,10.03,8.016,21]heneicosa-2(10),3,5,7,16,18,20-heptaene

> <PUBCHEM_IUPAC_INCHI>
InChI=1S/C19H18N2/c1-2-6-14-13(5-1)9-11-21-12-10-17-18(19(14)21)15-7-3-4-8-16(15)20-17/h1-8,19-20H,9-12H2

> <PUBCHEM_IUPAC_INCHIKEY>
RKVOQFDZLRUOCJ-UHFFFAOYSA-N

> <PUBCHEM_XLOGP3_AA>
3.7

> <PUBCHEM_EXACT_MASS>
274.146998583

> <PUBCHEM_MOLECULAR_FORMULA>
C19H18N2

> <PUBCHEM_MOLECULAR_WEIGHT>
274.4

> <PUBCHEM_OPENEYE_CAN_SMILES>
C1CN2CCC3=C(C2C4=CC=CC=C41)C5=CC=CC=C5N3

> <PUBCHEM_OPENEYE_ISO_SMILES>
C1CN2CCC3=C(C2C4=CC=CC=C41)C5=CC=CC=C5N3

> <PUBCHEM_CACTVS_TPSA>
19

> <PUBCHEM_MONOISOTOPIC_WEIGHT>
274.146998583

> <PUBCHEM_TOTAL_CHARGE>
0

> <PUBCHEM_HEAVY_ATOM_COUNT>
21

> <PUBCHEM_ATOM_DEF_STEREO_COUNT>
0

> <PUBCHEM_ATOM_UDEF_STEREO_COUNT>
1

> <PUBCHEM_BOND_DEF_STEREO_COUNT>
0

> <PUBCHEM_BOND_UDEF_STEREO_COUNT>
0

> <PUBCHEM_ISOTOPIC_ATOM_COUNT>
0

> <PUBCHEM_COMPONENT_COUNT>
1

> <PUBCHEM_CACTVS_TAUTO_COUNT>
-1

> <PUBCHEM_COORDINATE_TYPE>
1
5
255

> <PUBCHEM_BONDANNOTATIONS>
11  15  8
12  13  8
12  16  8
13  17  8
14  18  8
15  19  8
16  20  8
17  21  8
18  19  8
2  13  8
2  7  8
20  21  8
3  8  3
4  12  8
4  7  8
8  11  8
8  14  8

$$$$
