155557425
  -OEChem-09292322412D

 49 52  0     1  0  0  0  0  0999 V2000
   10.2395    1.9767    0.0000 S   0  0  0  0  0  0  0  0  0  0  0  0
    3.7320   -1.1659    0.0000 O   0  0  0  0  0  0  0  0  0  0  0  0
    8.2083    1.4904    0.0000 N   0  0  3  0  0  0  0  0  0  0  0  0
    7.2764   -2.9706    0.0000 N   0  0  0  0  0  0  0  0  0  0  0  0
    7.2298    1.2842    0.0000 C   0  0  0  0  0  0  0  0  0  0  0  0
    6.9192    0.3336    0.0000 C   0  0  0  0  0  0  0  0  0  0  0  0
    7.5870   -0.4107    0.0000 C   0  0  0  0  0  0  0  0  0  0  0  0
    8.8762    0.7461    0.0000 C   0  0  0  0  0  0  0  0  0  0  0  0
    7.2764   -1.3612    0.0000 C   0  0  0  0  0  0  0  0  0  0  0  0
    8.5655   -0.2044    0.0000 C   0  0  0  0  0  0  0  0  0  0  0  0
    8.5190    2.4409    0.0000 C   0  0  0  0  0  0  0  0  0  0  0  0
    6.3301   -1.6659    0.0000 C   0  0  0  0  0  0  0  0  0  0  0  0
    6.3301   -2.6659    0.0000 C   0  0  0  0  0  0  0  0  0  0  0  0
    7.8600   -2.1659    0.0000 C   0  0  0  0  0  0  0  0  0  0  0  0
    9.4975    2.6471    0.0000 C   0  0  0  0  0  0  0  0  0  0  0  0
    5.4641   -1.1659    0.0000 C   0  0  0  0  0  0  0  0  0  0  0  0
    5.4641   -3.1659    0.0000 C   0  0  0  0  0  0  0  0  0  0  0  0
    4.5981   -1.6659    0.0000 C   0  0  0  0  0  0  0  0  0  0  0  0
    4.5981   -2.6659    0.0000 C   0  0  0  0  0  0  0  0  0  0  0  0
    9.9058    3.5600    0.0000 C   0  0  0  0  0  0  0  0  0  0  0  0
    2.8660   -1.6659    0.0000 C   0  0  0  0  0  0  0  0  0  0  0  0
   10.9002    3.4537    0.0000 C   0  0  0  0  0  0  0  0  0  0  0  0
   11.1064    2.4752    0.0000 C   0  0  0  0  0  0  0  0  0  0  0  0
    2.0000   -1.1659    0.0000 C   0  0  0  0  0  0  0  0  0  0  0  0
    2.8660   -2.6659    0.0000 C   0  0  0  0  0  0  0  0  0  0  0  0
    7.2093    1.9038    0.0000 H   0  0  0  0  0  0  0  0  0  0  0  0
    6.6160    1.3715    0.0000 H   0  0  0  0  0  0  0  0  0  0  0  0
    6.3722    0.6257    0.0000 H   0  0  0  0  0  0  0  0  0  0  0  0
    6.5366   -0.1543    0.0000 H   0  0  0  0  0  0  0  0  0  0  0  0
    9.4231    0.4541    0.0000 H   0  0  0  0  0  0  0  0  0  0  0  0
    9.2587    1.2340    0.0000 H   0  0  0  0  0  0  0  0  0  0  0  0
    8.9796   -0.6659    0.0000 H   0  0  0  0  0  0  0  0  0  0  0  0
    8.4984    3.0606    0.0000 H   0  0  0  0  0  0  0  0  0  0  0  0
    7.9052    2.5282    0.0000 H   0  0  0  0  0  0  0  0  0  0  0  0
    8.4800   -2.1659    0.0000 H   0  0  0  0  0  0  0  0  0  0  0  0
    7.4690   -3.5600    0.0000 H   0  0  0  0  0  0  0  0  0  0  0  0
    5.4641   -0.5459    0.0000 H   0  0  0  0  0  0  0  0  0  0  0  0
    5.4641   -3.7859    0.0000 H   0  0  0  0  0  0  0  0  0  0  0  0
    4.0611   -2.9759    0.0000 H   0  0  0  0  0  0  0  0  0  0  0  0
    9.5968    4.0974    0.0000 H   0  0  0  0  0  0  0  0  0  0  0  0
    2.8660   -1.0459    0.0000 H   0  0  0  0  0  0  0  0  0  0  0  0
   11.3158    3.9138    0.0000 H   0  0  0  0  0  0  0  0  0  0  0  0
   11.6723    2.2220    0.0000 H   0  0  0  0  0  0  0  0  0  0  0  0
    2.3100   -0.6290    0.0000 H   0  0  0  0  0  0  0  0  0  0  0  0
    1.4631   -0.8559    0.0000 H   0  0  0  0  0  0  0  0  0  0  0  0
    1.6900   -1.7028    0.0000 H   0  0  0  0  0  0  0  0  0  0  0  0
    2.2460   -2.6659    0.0000 H   0  0  0  0  0  0  0  0  0  0  0  0
    2.8660   -3.2859    0.0000 H   0  0  0  0  0  0  0  0  0  0  0  0
    3.4860   -2.6659    0.0000 H   0  0  0  0  0  0  0  0  0  0  0  0
  1 15  1  0  0  0  0
  1 23  1  0  0  0  0
  2 18  1  0  0  0  0
  2 21  1  0  0  0  0
  3  5  1  0  0  0  0
  3  8  1  0  0  0  0
  3 11  1  0  0  0  0
  4 13  1  0  0  0  0
  4 14  1  0  0  0  0
  4 36  1  0  0  0  0
  5  6  1  0  0  0  0
  5 26  1  0  0  0  0
  5 27  1  0  0  0  0
  6  7  1  0  0  0  0
  6 28  1  0  0  0  0
  6 29  1  0  0  0  0
  7  9  1  0  0  0  0
  7 10  2  0  0  0  0
  8 10  1  0  0  0  0
  8 30  1  0  0  0  0
  8 31  1  0  0  0  0
  9 12  1  0  0  0  0
  9 14  2  0  0  0  0
 10 32  1  0  0  0  0
 11 15  1  0  0  0  0
 11 33  1  0  0  0  0
 11 34  1  0  0  0  0
 12 13  2  0  0  0  0
 12 16  1  0  0  0  0
 13 17  1  0  0  0  0
 14 35  1  0  0  0  0
 15 20  2  0  0  0  0
 16 18  2  0  0  0  0
 16 37  1  0  0  0  0
 17 19  2  0  0  0  0
 17 38  1  0  0  0  0
 18 19  1  0  0  0  0
 19 39  1  0  0  0  0
 20 22  1  0  0  0  0
 20 40  1  0  0  0  0
 21 24  1  0  0  0  0
 21 25  1  0  0  0  0
 21 41  1  0  0  0  0
 22 23  2  0  0  0  0
 22 42  1  0  0  0  0
 23 43  1  0  0  0  0
 24 44  1  0  0  0  0
 24 45  1  0  0  0  0
 24 46  1  0  0  0  0
 25 47  1  0  0  0  0
 25 48  1  0  0  0  0
 25 49  1  0  0  0  0
M  END
> <PUBCHEM_COMPOUND_CID>
155557425

> <PUBCHEM_COMPOUND_CANONICALIZED>
1

> <PUBCHEM_CACTVS_COMPLEXITY>
481

> <PUBCHEM_CACTVS_HBOND_ACCEPTOR>
3

> <PUBCHEM_CACTVS_HBOND_DONOR>
1

> <PUBCHEM_CACTVS_ROTATABLE_BOND>
5

> <PUBCHEM_CACTVS_SUBSKEYS>
AAADceB7IABAAAAAAAAAAAAAAAAAAWJAAAAwQAAAAAAAAFgB/AAAHgQQAAAADBzl3ga+x/PJlAikAzRnRACDiKAxKjBI2bg+bJgMJuLksZuGOCjk0BHo6Aew0PIOgEABAAACAAAAgAIAAAQAAAAAAAAAAA==

> <PUBCHEM_IUPAC_OPENEYE_NAME>
5-isopropoxy-3-[1-(2-thienylmethyl)-3,6-dihydro-2H-pyridin-4-yl]-1H-indole

> <PUBCHEM_IUPAC_CAS_NAME>
5-propan-2-yloxy-3-[1-(thiophen-2-ylmethyl)-3,6-dihydro-2H-pyridin-4-yl]-1H-indole

> <PUBCHEM_IUPAC_NAME_MARKUP>
5-propan-2-yloxy-3-[1-(thiophen-2-ylmethyl)-3,6-dihydro-2<I>H</I>-pyridin-4-yl]-1<I>H</I>-indole

> <PUBCHEM_IUPAC_NAME>
5-propan-2-yloxy-3-[1-(thiophen-2-ylmethyl)-3,6-dihydro-2H-pyridin-4-yl]-1H-indole

> <PUBCHEM_IUPAC_SYSTEMATIC_NAME>
5-propan-2-yloxy-3-[1-(thiophen-2-ylmethyl)-3,6-dihydro-2H-pyridin-4-yl]-1H-indole

> <PUBCHEM_IUPAC_TRADITIONAL_NAME>
5-isopropoxy-3-[1-(2-thenyl)-3,6-dihydro-2H-pyridin-4-yl]-1H-indole

> <PUBCHEM_IUPAC_INCHI>
InChI=1S/C21H24N2OS/c1-15(2)24-17-5-6-21-19(12-17)20(13-22-21)16-7-9-23(10-8-16)14-18-4-3-11-25-18/h3-7,11-13,15,22H,8-10,14H2,1-2H3

> <PUBCHEM_IUPAC_INCHIKEY>
QEHDNJNWBKJWNE-UHFFFAOYSA-N

> <PUBCHEM_XLOGP3_AA>
4.2

> <PUBCHEM_EXACT_MASS>
352.16093457

> <PUBCHEM_MOLECULAR_FORMULA>
C21H24N2OS

> <PUBCHEM_MOLECULAR_WEIGHT>
352.5

> <PUBCHEM_OPENEYE_CAN_SMILES>
CC(C)OC1=CC2=C(C=C1)NC=C2C3=CCN(CC3)CC4=CC=CS4

> <PUBCHEM_OPENEYE_ISO_SMILES>
CC(C)OC1=CC2=C(C=C1)NC=C2C3=CCN(CC3)CC4=CC=CS4

> <PUBCHEM_CACTVS_TPSA>
56.5

> <PUBCHEM_MONOISOTOPIC_WEIGHT>
352.16093457

> <PUBCHEM_TOTAL_CHARGE>
0

> <PUBCHEM_HEAVY_ATOM_COUNT>
25

> <PUBCHEM_ATOM_DEF_STEREO_COUNT>
0

> <PUBCHEM_ATOM_UDEF_STEREO_COUNT>
0

> <PUBCHEM_BOND_DEF_STEREO_COUNT>
0

> <PUBCHEM_BOND_UDEF_STEREO_COUNT>
0

> <PUBCHEM_ISOTOPIC_ATOM_COUNT>
0

> <PUBCHEM_COMPONENT_COUNT>
1

> <PUBCHEM_CACTVS_TAUTO_COUNT>
-1

> <PUBCHEM_COORDINATE_TYPE>
1
5
255

> <PUBCHEM_BONDANNOTATIONS>
1  15  8
1  23  8
12  13  8
12  16  8
13  17  8
15  20  8
16  18  8
17  19  8
18  19  8
20  22  8
22  23  8
4  13  8
4  14  8
9  12  8
9  14  8

$$$$
