71574204
  -OEChem-09292322332D

 58 61  0     0  0  0  0  0  0999 V2000
   10.7282    2.2673    0.0000 Cl  0  0  0  0  0  0  0  0  0  0  0  0
   12.4603    3.2673    0.0000 Cl  0  0  0  0  0  0  0  0  0  0  0  0
    4.6660   -2.2327    0.0000 S   0  0  0  0  0  0  0  0  0  0  0  0
    5.6660   -2.2327    0.0000 O   0  0  0  0  0  0  0  0  0  0  0  0
    3.6660   -2.2327    0.0000 O   0  0  0  0  0  0  0  0  0  0  0  0
    7.2641    2.2673    0.0000 N   0  0  0  0  0  0  0  0  0  0  0  0
    8.9962    3.2673    0.0000 N   0  0  0  0  0  0  0  0  0  0  0  0
    4.6660   -1.2327    0.0000 N   0  0  0  0  0  0  0  0  0  0  0  0
    5.5321   -4.7327    0.0000 N   0  0  0  0  0  0  0  0  0  0  0  0
    8.1301    1.7673    0.0000 C   0  0  0  0  0  0  0  0  0  0  0  0
    7.2641    3.2673    0.0000 C   0  0  0  0  0  0  0  0  0  0  0  0
    8.9962    2.2673    0.0000 C   0  0  0  0  0  0  0  0  0  0  0  0
    8.1301    3.7673    0.0000 C   0  0  0  0  0  0  0  0  0  0  0  0
    6.3981    1.7673    0.0000 C   0  0  0  0  0  0  0  0  0  0  0  0
    6.3981    0.7673    0.0000 C   0  0  0  0  0  0  0  0  0  0  0  0
    5.5321    0.2673    0.0000 C   0  0  0  0  0  0  0  0  0  0  0  0
    9.8622    3.7673    0.0000 C   0  0  0  0  0  0  0  0  0  0  0  0
    5.5321   -0.7327    0.0000 C   0  0  0  0  0  0  0  0  0  0  0  0
   10.7282    3.2673    0.0000 C   0  0  0  0  0  0  0  0  0  0  0  0
    9.8622    4.7673    0.0000 C   0  0  0  0  0  0  0  0  0  0  0  0
   11.5942    3.7673    0.0000 C   0  0  0  0  0  0  0  0  0  0  0  0
   10.7282    5.2673    0.0000 C   0  0  0  0  0  0  0  0  0  0  0  0
    4.6660   -3.2327    0.0000 C   0  0  0  0  0  0  0  0  0  0  0  0
   11.5942    4.7673    0.0000 C   0  0  0  0  0  0  0  0  0  0  0  0
    3.8000   -3.7327    0.0000 C   0  0  0  0  0  0  0  0  0  0  0  0
    3.8000   -4.7327    0.0000 C   0  0  0  0  0  0  0  0  0  0  0  0
    5.5321   -3.7327    0.0000 C   0  0  0  0  0  0  0  0  0  0  0  0
    2.9061   -3.1980    0.0000 C   0  0  0  0  0  0  0  0  0  0  0  0
    4.6660   -5.2327    0.0000 C   0  0  0  0  0  0  0  0  0  0  0  0
    2.9061   -5.2673    0.0000 C   0  0  0  0  0  0  0  0  0  0  0  0
    2.0000   -3.7118    0.0000 C   0  0  0  0  0  0  0  0  0  0  0  0
    2.0000   -4.7535    0.0000 C   0  0  0  0  0  0  0  0  0  0  0  0
    7.7316    1.2924    0.0000 H   0  0  0  0  0  0  0  0  0  0  0  0
    8.5287    1.2924    0.0000 H   0  0  0  0  0  0  0  0  0  0  0  0
    7.0521    3.8499    0.0000 H   0  0  0  0  0  0  0  0  0  0  0  0
    6.6535    3.1597    0.0000 H   0  0  0  0  0  0  0  0  0  0  0  0
    9.2082    1.6847    0.0000 H   0  0  0  0  0  0  0  0  0  0  0  0
    9.6067    2.3750    0.0000 H   0  0  0  0  0  0  0  0  0  0  0  0
    8.5287    4.2423    0.0000 H   0  0  0  0  0  0  0  0  0  0  0  0
    7.7316    4.2423    0.0000 H   0  0  0  0  0  0  0  0  0  0  0  0
    6.1860    2.3499    0.0000 H   0  0  0  0  0  0  0  0  0  0  0  0
    5.7875    1.6597    0.0000 H   0  0  0  0  0  0  0  0  0  0  0  0
    6.6101    0.1847    0.0000 H   0  0  0  0  0  0  0  0  0  0  0  0
    7.0087    0.8750    0.0000 H   0  0  0  0  0  0  0  0  0  0  0  0
    5.3200    0.8499    0.0000 H   0  0  0  0  0  0  0  0  0  0  0  0
    4.9215    0.1597    0.0000 H   0  0  0  0  0  0  0  0  0  0  0  0
    5.7441   -1.3153    0.0000 H   0  0  0  0  0  0  0  0  0  0  0  0
    6.1426   -0.6250    0.0000 H   0  0  0  0  0  0  0  0  0  0  0  0
    9.3252    5.0773    0.0000 H   0  0  0  0  0  0  0  0  0  0  0  0
    4.1291   -0.9227    0.0000 H   0  0  0  0  0  0  0  0  0  0  0  0
   10.7282    5.8873    0.0000 H   0  0  0  0  0  0  0  0  0  0  0  0
   12.1312    5.0773    0.0000 H   0  0  0  0  0  0  0  0  0  0  0  0
    6.0690   -3.4227    0.0000 H   0  0  0  0  0  0  0  0  0  0  0  0
    2.9132   -2.5780    0.0000 H   0  0  0  0  0  0  0  0  0  0  0  0
    4.6660   -5.8527    0.0000 H   0  0  0  0  0  0  0  0  0  0  0  0
    2.9132   -5.8873    0.0000 H   0  0  0  0  0  0  0  0  0  0  0  0
    1.4643   -3.3998    0.0000 H   0  0  0  0  0  0  0  0  0  0  0  0
    1.4643   -5.0656    0.0000 H   0  0  0  0  0  0  0  0  0  0  0  0
  1 19  1  0  0  0  0
  2 21  1  0  0  0  0
  3  4  2  0  0  0  0
  3  5  2  0  0  0  0
  3  8  1  0  0  0  0
  3 23  1  0  0  0  0
  6 10  1  0  0  0  0
  6 11  1  0  0  0  0
  6 14  1  0  0  0  0
  7 12  1  0  0  0  0
  7 13  1  0  0  0  0
  7 17  1  0  0  0  0
  8 18  1  0  0  0  0
  8 50  1  0  0  0  0
  9 27  1  0  0  0  0
  9 29  2  0  0  0  0
 10 12  1  0  0  0  0
 10 33  1  0  0  0  0
 10 34  1  0  0  0  0
 11 13  1  0  0  0  0
 11 35  1  0  0  0  0
 11 36  1  0  0  0  0
 12 37  1  0  0  0  0
 12 38  1  0  0  0  0
 13 39  1  0  0  0  0
 13 40  1  0  0  0  0
 14 15  1  0  0  0  0
 14 41  1  0  0  0  0
 14 42  1  0  0  0  0
 15 16  1  0  0  0  0
 15 43  1  0  0  0  0
 15 44  1  0  0  0  0
 16 18  1  0  0  0  0
 16 45  1  0  0  0  0
 16 46  1  0  0  0  0
 17 19  2  0  0  0  0
 17 20  1  0  0  0  0
 18 47  1  0  0  0  0
 18 48  1  0  0  0  0
 19 21  1  0  0  0  0
 20 22  2  0  0  0  0
 20 49  1  0  0  0  0
 21 24  2  0  0  0  0
 22 24  1  0  0  0  0
 22 51  1  0  0  0  0
 23 25  1  0  0  0  0
 23 27  2  0  0  0  0
 24 52  1  0  0  0  0
 25 26  1  0  0  0  0
 25 28  2  0  0  0  0
 26 29  1  0  0  0  0
 26 30  2  0  0  0  0
 27 53  1  0  0  0  0
 28 31  1  0  0  0  0
 28 54  1  0  0  0  0
 29 55  1  0  0  0  0
 30 32  1  0  0  0  0
 30 56  1  0  0  0  0
 31 32  2  0  0  0  0
 31 57  1  0  0  0  0
 32 58  1  0  0  0  0
M  END
> <PUBCHEM_COMPOUND_CID>
71574204

> <PUBCHEM_COMPOUND_CANONICALIZED>
1

> <PUBCHEM_CACTVS_COMPLEXITY>
684

> <PUBCHEM_CACTVS_HBOND_ACCEPTOR>
6

> <PUBCHEM_CACTVS_HBOND_DONOR>
1

> <PUBCHEM_CACTVS_ROTATABLE_BOND>
8

> <PUBCHEM_CACTVS_SUBSKEYS>
AAADceB7sABGAAAAAAAAAAAAAAAAAAAAAAA8eIEAAAAAAACx9AAAHAYQQAAADArBWiQ8wdNIEAKgAjRnRHDCgDAxByAI2vwoZpgIYOLBk5HUIAhgkADIyAcQgIAOgAAAAAIQABQAAAAABCAAKAAAAAAAAA==

> <PUBCHEM_IUPAC_OPENEYE_NAME>
N-[4-[4-(2,3-dichlorophenyl)piperazin-1-yl]butyl]isoquinoline-4-sulfonamide

> <PUBCHEM_IUPAC_CAS_NAME>
N-[4-[4-(2,3-dichlorophenyl)-1-piperazinyl]butyl]-4-isoquinolinesulfonamide

> <PUBCHEM_IUPAC_NAME_MARKUP>
<I>N</I>-[4-[4-(2,3-dichlorophenyl)piperazin-1-yl]butyl]isoquinoline-4-sulfonamide

> <PUBCHEM_IUPAC_NAME>
N-[4-[4-(2,3-dichlorophenyl)piperazin-1-yl]butyl]isoquinoline-4-sulfonamide

> <PUBCHEM_IUPAC_SYSTEMATIC_NAME>
N-[4-[4-[2,3-bis(chloranyl)phenyl]piperazin-1-yl]butyl]isoquinoline-4-sulfonamide

> <PUBCHEM_IUPAC_TRADITIONAL_NAME>
N-[4-[4-(2,3-dichlorophenyl)piperazino]butyl]isoquinoline-4-sulfonamide

> <PUBCHEM_IUPAC_INCHI>
InChI=1S/C23H26Cl2N4O2S/c24-20-8-5-9-21(23(20)25)29-14-12-28(13-15-29)11-4-3-10-27-32(30,31)22-17-26-16-18-6-1-2-7-19(18)22/h1-2,5-9,16-17,27H,3-4,10-15H2

> <PUBCHEM_IUPAC_INCHIKEY>
HNYKNGYYMXLUFG-UHFFFAOYSA-N

> <PUBCHEM_XLOGP3_AA>
4.7

> <PUBCHEM_EXACT_MASS>
492.1153526

> <PUBCHEM_MOLECULAR_FORMULA>
C23H26Cl2N4O2S

> <PUBCHEM_MOLECULAR_WEIGHT>
493.4

> <PUBCHEM_OPENEYE_CAN_SMILES>
C1CN(CCN1CCCCNS(=O)(=O)C2=CN=CC3=CC=CC=C32)C4=C(C(=CC=C4)Cl)Cl

> <PUBCHEM_OPENEYE_ISO_SMILES>
C1CN(CCN1CCCCNS(=O)(=O)C2=CN=CC3=CC=CC=C32)C4=C(C(=CC=C4)Cl)Cl

> <PUBCHEM_CACTVS_TPSA>
73.9

> <PUBCHEM_MONOISOTOPIC_WEIGHT>
492.1153526

> <PUBCHEM_TOTAL_CHARGE>
0

> <PUBCHEM_HEAVY_ATOM_COUNT>
32

> <PUBCHEM_ATOM_DEF_STEREO_COUNT>
0

> <PUBCHEM_ATOM_UDEF_STEREO_COUNT>
0

> <PUBCHEM_BOND_DEF_STEREO_COUNT>
0

> <PUBCHEM_BOND_UDEF_STEREO_COUNT>
0

> <PUBCHEM_ISOTOPIC_ATOM_COUNT>
0

> <PUBCHEM_COMPONENT_COUNT>
1

> <PUBCHEM_CACTVS_TAUTO_COUNT>
-1

> <PUBCHEM_COORDINATE_TYPE>
1
5
255

> <PUBCHEM_BONDANNOTATIONS>
17  19  8
17  20  8
19  21  8
20  22  8
21  24  8
22  24  8
23  25  8
23  27  8
25  26  8
25  28  8
26  29  8
26  30  8
28  31  8
30  32  8
31  32  8
9  27  8
9  29  8

$$$$
