10402381
  -OEChem-09292322122D

 43 44  0     1  0  0  0  0  0999 V2000
    3.0000   -3.2500    0.0000 S   0  0  0  0  0  0  0  0  0  0  0  0
    3.0000   -2.2500    0.0000 O   0  0  0  0  0  0  0  0  0  0  0  0
    2.0000   -3.2500    0.0000 O   0  0  0  0  0  0  0  0  0  0  0  0
    4.0000   -3.2500    0.0000 O   0  0  0  0  0  0  0  0  0  0  0  0
    3.8660    2.2500    0.0000 N   0  0  3  0  0  0  0  0  0  0  0  0
    4.7320    0.7500    0.0000 C   0  0  1  0  0  0  0  0  0  0  0  0
    3.8660    1.2500    0.0000 C   0  0  0  0  0  0  0  0  0  0  0  0
    5.5981    1.2500    0.0000 C   0  0  0  0  0  0  0  0  0  0  0  0
    5.5981    2.2500    0.0000 C   0  0  0  0  0  0  0  0  0  0  0  0
    4.7320    2.7500    0.0000 C   0  0  0  0  0  0  0  0  0  0  0  0
    4.7320   -0.2500    0.0000 C   0  0  0  0  0  0  0  0  0  0  0  0
    3.0000    2.7500    0.0000 C   0  0  0  0  0  0  0  0  0  0  0  0
    3.0000    3.7500    0.0000 C   0  0  0  0  0  0  0  0  0  0  0  0
    3.8660   -0.7500    0.0000 C   0  0  0  0  0  0  0  0  0  0  0  0
    5.5981   -0.7500    0.0000 C   0  0  0  0  0  0  0  0  0  0  0  0
    2.1340    4.2500    0.0000 C   0  0  0  0  0  0  0  0  0  0  0  0
    3.8660   -1.7500    0.0000 C   0  0  0  0  0  0  0  0  0  0  0  0
    5.5981   -1.7500    0.0000 C   0  0  0  0  0  0  0  0  0  0  0  0
    4.7320   -2.2500    0.0000 C   0  0  0  0  0  0  0  0  0  0  0  0
    3.0000   -4.2500    0.0000 C   0  0  0  0  0  0  0  0  0  0  0  0
    5.2690    0.4400    0.0000 H   0  0  0  0  0  0  0  0  0  0  0  0
    3.2554    1.3577    0.0000 H   0  0  0  0  0  0  0  0  0  0  0  0
    3.6540    0.6674    0.0000 H   0  0  0  0  0  0  0  0  0  0  0  0
    5.8101    0.6674    0.0000 H   0  0  0  0  0  0  0  0  0  0  0  0
    6.2087    1.3577    0.0000 H   0  0  0  0  0  0  0  0  0  0  0  0
    6.2087    2.1423    0.0000 H   0  0  0  0  0  0  0  0  0  0  0  0
    5.8101    2.8326    0.0000 H   0  0  0  0  0  0  0  0  0  0  0  0
    5.1306    3.2250    0.0000 H   0  0  0  0  0  0  0  0  0  0  0  0
    4.3335    3.2250    0.0000 H   0  0  0  0  0  0  0  0  0  0  0  0
    2.3894    2.8577    0.0000 H   0  0  0  0  0  0  0  0  0  0  0  0
    2.7880    2.1674    0.0000 H   0  0  0  0  0  0  0  0  0  0  0  0
    3.6106    3.6423    0.0000 H   0  0  0  0  0  0  0  0  0  0  0  0
    3.2120    4.3326    0.0000 H   0  0  0  0  0  0  0  0  0  0  0  0
    3.3291   -0.4400    0.0000 H   0  0  0  0  0  0  0  0  0  0  0  0
    6.1350   -0.4400    0.0000 H   0  0  0  0  0  0  0  0  0  0  0  0
    2.4440    4.7869    0.0000 H   0  0  0  0  0  0  0  0  0  0  0  0
    1.5970    4.5600    0.0000 H   0  0  0  0  0  0  0  0  0  0  0  0
    1.8240    3.7131    0.0000 H   0  0  0  0  0  0  0  0  0  0  0  0
    6.1350   -2.0600    0.0000 H   0  0  0  0  0  0  0  0  0  0  0  0
    4.7320   -2.8700    0.0000 H   0  0  0  0  0  0  0  0  0  0  0  0
    2.3800   -4.2500    0.0000 H   0  0  0  0  0  0  0  0  0  0  0  0
    3.0000   -4.8700    0.0000 H   0  0  0  0  0  0  0  0  0  0  0  0
    3.6200   -4.2500    0.0000 H   0  0  0  0  0  0  0  0  0  0  0  0
  1  2  1  0  0  0  0
  1  3  2  0  0  0  0
  1  4  2  0  0  0  0
  1 20  1  0  0  0  0
  2 17  1  0  0  0  0
  5  7  1  0  0  0  0
  5 10  1  0  0  0  0
  5 12  1  0  0  0  0
  6  7  1  0  0  0  0
  6  8  1  0  0  0  0
  6 11  1  1  0  0  0
  6 21  1  0  0  0  0
  7 22  1  0  0  0  0
  7 23  1  0  0  0  0
  8  9  1  0  0  0  0
  8 24  1  0  0  0  0
  8 25  1  0  0  0  0
  9 10  1  0  0  0  0
  9 26  1  0  0  0  0
  9 27  1  0  0  0  0
 10 28  1  0  0  0  0
 10 29  1  0  0  0  0
 11 14  2  0  0  0  0
 11 15  1  0  0  0  0
 12 13  1  0  0  0  0
 12 30  1  0  0  0  0
 12 31  1  0  0  0  0
 13 16  1  0  0  0  0
 13 32  1  0  0  0  0
 13 33  1  0  0  0  0
 14 17  1  0  0  0  0
 14 34  1  0  0  0  0
 15 18  2  0  0  0  0
 15 35  1  0  0  0  0
 16 36  1  0  0  0  0
 16 37  1  0  0  0  0
 16 38  1  0  0  0  0
 17 19  2  0  0  0  0
 18 19  1  0  0  0  0
 18 39  1  0  0  0  0
 19 40  1  0  0  0  0
 20 41  1  0  0  0  0
 20 42  1  0  0  0  0
 20 43  1  0  0  0  0
M  END
> <PUBCHEM_COMPOUND_CID>
10402381

> <PUBCHEM_COMPOUND_CANONICALIZED>
1

> <PUBCHEM_CACTVS_COMPLEXITY>
390

> <PUBCHEM_CACTVS_HBOND_ACCEPTOR>
4

> <PUBCHEM_CACTVS_HBOND_DONOR>
0

> <PUBCHEM_CACTVS_ROTATABLE_BOND>
5

> <PUBCHEM_CACTVS_SUBSKEYS>
AAADceByMABAAAAAAAAAAAAAAAAAAAAAAAA8QAAAAAAAAAABAAAAHgQAAAAADQTBmASyBoMAAAKAAiBCAHACAAAgIAAIiAAOCIgIJiKAkROEMAAkwBGIiAeQ0PIOgAABAAAAAAAAAAIAAAAAAAAAAAAAAA==

> <PUBCHEM_IUPAC_OPENEYE_NAME>
[3-[(3S)-1-propyl-3-piperidyl]phenyl] methanesulfonate

> <PUBCHEM_IUPAC_CAS_NAME>
methanesulfonic acid [3-[(3S)-1-propyl-3-piperidinyl]phenyl] ester

> <PUBCHEM_IUPAC_NAME_MARKUP>
[3-[(3<I>S</I>)-1-propylpiperidin-3-yl]phenyl] methanesulfonate

> <PUBCHEM_IUPAC_NAME>
[3-[(3S)-1-propylpiperidin-3-yl]phenyl] methanesulfonate

> <PUBCHEM_IUPAC_SYSTEMATIC_NAME>
[3-[(3S)-1-propylpiperidin-3-yl]phenyl] methanesulfonate

> <PUBCHEM_IUPAC_TRADITIONAL_NAME>
methanesulfonic acid [3-[(3S)-1-propyl-3-piperidyl]phenyl] ester

> <PUBCHEM_IUPAC_INCHI>
InChI=1S/C15H23NO3S/c1-3-9-16-10-5-7-14(12-16)13-6-4-8-15(11-13)19-20(2,17)18/h4,6,8,11,14H,3,5,7,9-10,12H2,1-2H3/t14-/m1/s1

> <PUBCHEM_IUPAC_INCHIKEY>
AHSLTJCTFBJCMT-CQSZACIVSA-N

> <PUBCHEM_XLOGP3_AA>
2.9

> <PUBCHEM_EXACT_MASS>
297.13986477

> <PUBCHEM_MOLECULAR_FORMULA>
C15H23NO3S

> <PUBCHEM_MOLECULAR_WEIGHT>
297.4

> <PUBCHEM_OPENEYE_CAN_SMILES>
CCCN1CCCC(C1)C2=CC(=CC=C2)OS(=O)(=O)C

> <PUBCHEM_OPENEYE_ISO_SMILES>
CCCN1CCC[C@H](C1)C2=CC(=CC=C2)OS(=O)(=O)C

> <PUBCHEM_CACTVS_TPSA>
55

> <PUBCHEM_MONOISOTOPIC_WEIGHT>
297.13986477

> <PUBCHEM_TOTAL_CHARGE>
0

> <PUBCHEM_HEAVY_ATOM_COUNT>
20

> <PUBCHEM_ATOM_DEF_STEREO_COUNT>
1

> <PUBCHEM_ATOM_UDEF_STEREO_COUNT>
0

> <PUBCHEM_BOND_DEF_STEREO_COUNT>
0

> <PUBCHEM_BOND_UDEF_STEREO_COUNT>
0

> <PUBCHEM_ISOTOPIC_ATOM_COUNT>
0

> <PUBCHEM_COMPONENT_COUNT>
1

> <PUBCHEM_CACTVS_TAUTO_COUNT>
-1

> <PUBCHEM_COORDINATE_TYPE>
1
5
255

> <PUBCHEM_BONDANNOTATIONS>
11  14  8
11  15  8
14  17  8
15  18  8
17  19  8
18  19  8
6  11  5

$$$$
