44591540
  -OEChem-09292322502D

 42 44  0     1  0  0  0  0  0999 V2000
    6.9178    1.2742    0.0000 O   0  0  0  0  0  0  0  0  0  0  0  0
    3.4075    1.2568    0.0000 O   0  0  0  0  0  0  0  0  0  0  0  0
    8.7098    0.2395    0.0000 N   0  0  3  0  0  0  0  0  0  0  0  0
    2.5357   -0.2398    0.0000 N   0  0  0  0  0  0  0  0  0  0  0  0
    7.7998   -0.2673    0.0000 C   0  0  2  0  0  0  0  0  0  0  0  0
    6.9338    0.2327    0.0000 C   0  0  2  0  0  0  0  0  0  0  0  0
    7.7998   -1.2673    0.0000 C   0  0  0  0  0  0  0  0  0  0  0  0
    6.0678   -0.2673    0.0000 C   0  0  0  0  0  0  0  0  0  0  0  0
    6.9338   -1.7673    0.0000 C   0  0  0  0  0  0  0  0  0  0  0  0
    8.7179    1.2812    0.0000 C   0  0  0  0  0  0  0  0  0  0  0  0
    6.0678   -1.2673    0.0000 C   0  0  0  0  0  0  0  0  0  0  0  0
    7.8158    1.8020    0.0000 C   0  0  0  0  0  0  0  0  0  0  0  0
    9.5700   -0.2704    0.0000 C   0  0  0  0  0  0  0  0  0  0  0  0
    5.1738    0.2674    0.0000 C   0  0  0  0  0  0  0  0  0  0  0  0
   10.4418    0.2195    0.0000 C   0  0  0  0  0  0  0  0  0  0  0  0
    5.1738   -1.8020    0.0000 C   0  0  0  0  0  0  0  0  0  0  0  0
    4.2678   -0.2465    0.0000 C   0  0  0  0  0  0  0  0  0  0  0  0
    4.2678   -1.2881    0.0000 C   0  0  0  0  0  0  0  0  0  0  0  0
   11.3020   -0.2905    0.0000 C   0  0  0  0  0  0  0  0  0  0  0  0
    3.4037    0.2568    0.0000 C   0  0  0  0  0  0  0  0  0  0  0  0
    8.5327   -0.6980    0.0000 H   0  0  0  0  0  0  0  0  0  0  0  0
    7.6666    0.6634    0.0000 H   0  0  0  0  0  0  0  0  0  0  0  0
    8.0119   -1.8499    0.0000 H   0  0  0  0  0  0  0  0  0  0  0  0
    8.4104   -1.1596    0.0000 H   0  0  0  0  0  0  0  0  0  0  0  0
    6.5353   -2.2422    0.0000 H   0  0  0  0  0  0  0  0  0  0  0  0
    7.3323   -2.2422    0.0000 H   0  0  0  0  0  0  0  0  0  0  0  0
    9.3279    1.1704    0.0000 H   0  0  0  0  0  0  0  0  0  0  0  0
    8.9314    1.8632    0.0000 H   0  0  0  0  0  0  0  0  0  0  0  0
    8.2131    2.2779    0.0000 H   0  0  0  0  0  0  0  0  0  0  0  0
    7.4148    2.2748    0.0000 H   0  0  0  0  0  0  0  0  0  0  0  0
    9.1660   -0.7407    0.0000 H   0  0  0  0  0  0  0  0  0  0  0  0
    9.9630   -0.7500    0.0000 H   0  0  0  0  0  0  0  0  0  0  0  0
    5.1810    0.8873    0.0000 H   0  0  0  0  0  0  0  0  0  0  0  0
   10.8458    0.6898    0.0000 H   0  0  0  0  0  0  0  0  0  0  0  0
   10.0488    0.6990    0.0000 H   0  0  0  0  0  0  0  0  0  0  0  0
    5.1810   -2.4219    0.0000 H   0  0  0  0  0  0  0  0  0  0  0  0
    3.7320   -1.6002    0.0000 H   0  0  0  0  0  0  0  0  0  0  0  0
   10.9858   -0.8238    0.0000 H   0  0  0  0  0  0  0  0  0  0  0  0
   11.8353   -0.6067    0.0000 H   0  0  0  0  0  0  0  0  0  0  0  0
   11.6181    0.2429    0.0000 H   0  0  0  0  0  0  0  0  0  0  0  0
    2.0000    0.0723    0.0000 H   0  0  0  0  0  0  0  0  0  0  0  0
    2.5334   -0.8598    0.0000 H   0  0  0  0  0  0  0  0  0  0  0  0
  1  6  1  0  0  0  0
  1 12  1  0  0  0  0
  2 20  2  0  0  0  0
  3  5  1  0  0  0  0
  3 10  1  0  0  0  0
  3 13  1  0  0  0  0
  4 20  1  0  0  0  0
  4 41  1  0  0  0  0
  4 42  1  0  0  0  0
  5  6  1  0  0  0  0
  5  7  1  0  0  0  0
  5 21  1  6  0  0  0
  6  8  1  0  0  0  0
  6 22  1  1  0  0  0
  7  9  1  0  0  0  0
  7 23  1  0  0  0  0
  7 24  1  0  0  0  0
  8 11  2  0  0  0  0
  8 14  1  0  0  0  0
  9 11  1  0  0  0  0
  9 25  1  0  0  0  0
  9 26  1  0  0  0  0
 10 12  1  0  0  0  0
 10 27  1  0  0  0  0
 10 28  1  0  0  0  0
 11 16  1  0  0  0  0
 12 29  1  0  0  0  0
 12 30  1  0  0  0  0
 13 15  1  0  0  0  0
 13 31  1  0  0  0  0
 13 32  1  0  0  0  0
 14 17  2  0  0  0  0
 14 33  1  0  0  0  0
 15 19  1  0  0  0  0
 15 34  1  0  0  0  0
 15 35  1  0  0  0  0
 16 18  2  0  0  0  0
 16 36  1  0  0  0  0
 17 18  1  0  0  0  0
 17 20  1  0  0  0  0
 18 37  1  0  0  0  0
 19 38  1  0  0  0  0
 19 39  1  0  0  0  0
 19 40  1  0  0  0  0
M  END
> <PUBCHEM_COMPOUND_CID>
44591540

> <PUBCHEM_COMPOUND_CANONICALIZED>
1

> <PUBCHEM_CACTVS_COMPLEXITY>
360

> <PUBCHEM_CACTVS_HBOND_ACCEPTOR>
3

> <PUBCHEM_CACTVS_HBOND_DONOR>
1

> <PUBCHEM_CACTVS_ROTATABLE_BOND>
3

> <PUBCHEM_CACTVS_SUBSKEYS>
AAADceB7MAAAAAAAAAAAAAAAAAAAAAAAAAA8YIAAAAAAAADxAAAAHgAQAAAADDzhmAYyAINABACIAiFSEACCAAAkAAAIiAEIDMgKJjKAtRmHMQBkwAGYqYeY3PDOwAACAAAQAACQAAaAADAgAAAAAAAAAA==

> <PUBCHEM_IUPAC_OPENEYE_NAME>
(4aS,10bS)-4-propyl-2,3,4a,5,6,10b-hexahydrobenzo[h][1,4]benzoxazine-9-carboxamide

> <PUBCHEM_IUPAC_CAS_NAME>
(4aS,10bS)-4-propyl-2,3,4a,5,6,10b-hexahydrobenzo[h][1,4]benzoxazine-9-carboxamide

> <PUBCHEM_IUPAC_NAME_MARKUP>
(4<I>a</I><I>S</I>,10<I>b</I><I>S</I>)-4-propyl-2,3,4<I>a</I>,5,6,10<I>b</I>-hexahydrobenzo[h][1,4]benzoxazine-9-carboxamide

> <PUBCHEM_IUPAC_NAME>
(4aS,10bS)-4-propyl-2,3,4a,5,6,10b-hexahydrobenzo[h][1,4]benzoxazine-9-carboxamide

> <PUBCHEM_IUPAC_SYSTEMATIC_NAME>
(4aS,10bS)-4-propyl-2,3,4a,5,6,10b-hexahydrobenzo[h][1,4]benzoxazine-9-carboxamide

> <PUBCHEM_IUPAC_TRADITIONAL_NAME>
(4aS,10bS)-4-propyl-2,3,4a,5,6,10b-hexahydrobenzo[h][1,4]benzoxazine-9-carboxamide

> <PUBCHEM_IUPAC_INCHI>
InChI=1S/C16H22N2O2/c1-2-7-18-8-9-20-15-13-10-12(16(17)19)4-3-11(13)5-6-14(15)18/h3-4,10,14-15H,2,5-9H2,1H3,(H2,17,19)/t14-,15-/m0/s1

> <PUBCHEM_IUPAC_INCHIKEY>
XKTRZPQOQOCNJU-GJZGRUSLSA-N

> <PUBCHEM_XLOGP3>
1.7

> <PUBCHEM_EXACT_MASS>
274.168127949

> <PUBCHEM_MOLECULAR_FORMULA>
C16H22N2O2

> <PUBCHEM_MOLECULAR_WEIGHT>
274.36

> <PUBCHEM_OPENEYE_CAN_SMILES>
CCCN1CCOC2C1CCC3=C2C=C(C=C3)C(=O)N

> <PUBCHEM_OPENEYE_ISO_SMILES>
CCCN1CCO[C@@H]2[C@@H]1CCC3=C2C=C(C=C3)C(=O)N

> <PUBCHEM_CACTVS_TPSA>
55.6

> <PUBCHEM_MONOISOTOPIC_WEIGHT>
274.168127949

> <PUBCHEM_TOTAL_CHARGE>
0

> <PUBCHEM_HEAVY_ATOM_COUNT>
20

> <PUBCHEM_ATOM_DEF_STEREO_COUNT>
2

> <PUBCHEM_ATOM_UDEF_STEREO_COUNT>
0

> <PUBCHEM_BOND_DEF_STEREO_COUNT>
0

> <PUBCHEM_BOND_UDEF_STEREO_COUNT>
0

> <PUBCHEM_ISOTOPIC_ATOM_COUNT>
0

> <PUBCHEM_COMPONENT_COUNT>
1

> <PUBCHEM_CACTVS_TAUTO_COUNT>
-1

> <PUBCHEM_COORDINATE_TYPE>
1
5
255

> <PUBCHEM_BONDANNOTATIONS>
11  16  8
14  17  8
16  18  8
17  18  8
5  21  6
6  22  5
8  11  8
8  14  8

$$$$
