56944287
  -OEChem-09292322342D

 60 63  0     0  0  0  0  0  0999 V2000
   10.3438    2.7003    0.0000 S   0  0  0  0  0  0  0  0  0  0  0  0
    2.0000   -5.4262    0.0000 F   0  0  0  0  0  0  0  0  0  0  0  0
   14.8791    5.4262    0.0000 F   0  0  0  0  0  0  0  0  0  0  0  0
   15.5190    4.1650    0.0000 F   0  0  0  0  0  0  0  0  0  0  0  0
   13.6180    4.7864    0.0000 F   0  0  0  0  0  0  0  0  0  0  0  0
    5.5443   -5.2310    0.0000 O   0  0  0  0  0  0  0  0  0  0  0  0
   10.1376    3.6788    0.0000 O   0  0  0  0  0  0  0  0  0  0  0  0
   10.5500    1.7218    0.0000 O   0  0  0  0  0  0  0  0  0  0  0  0
   14.2578    3.5252    0.0000 O   0  0  0  0  0  0  0  0  0  0  0  0
    6.4763   -0.7699    0.0000 N   0  0  0  0  0  0  0  0  0  0  0  0
    6.1279   -4.4262    0.0000 N   0  0  0  0  0  0  0  0  0  0  0  0
    9.3653    2.4941    0.0000 N   0  0  0  0  0  0  0  0  0  0  0  0
    5.8550   -2.6710    0.0000 C   0  0  0  0  0  0  0  0  0  0  0  0
    5.1871   -1.9267    0.0000 C   0  0  0  0  0  0  0  0  0  0  0  0
    6.8335   -2.4647    0.0000 C   0  0  0  0  0  0  0  0  0  0  0  0
    5.4978   -0.9761    0.0000 C   0  0  0  0  0  0  0  0  0  0  0  0
    7.1441   -1.5142    0.0000 C   0  0  0  0  0  0  0  0  0  0  0  0
    6.7870    0.1806    0.0000 C   0  0  0  0  0  0  0  0  0  0  0  0
    5.5443   -3.6215    0.0000 C   0  0  0  0  0  0  0  0  0  0  0  0
    7.7654    0.3868    0.0000 C   0  0  0  0  0  0  0  0  0  0  0  0
    4.5981   -3.9262    0.0000 C   0  0  0  0  0  0  0  0  0  0  0  0
    8.0761    1.3373    0.0000 C   0  0  0  0  0  0  0  0  0  0  0  0
    4.5981   -4.9262    0.0000 C   0  0  0  0  0  0  0  0  0  0  0  0
    9.0546    1.5436    0.0000 C   0  0  0  0  0  0  0  0  0  0  0  0
    3.7320   -3.4262    0.0000 C   0  0  0  0  0  0  0  0  0  0  0  0
    3.7320   -5.4262    0.0000 C   0  0  0  0  0  0  0  0  0  0  0  0
    2.8660   -3.9262    0.0000 C   0  0  0  0  0  0  0  0  0  0  0  0
    2.8660   -4.9262    0.0000 C   0  0  0  0  0  0  0  0  0  0  0  0
   11.3223    2.9065    0.0000 C   0  0  0  0  0  0  0  0  0  0  0  0
   11.9901    2.1622    0.0000 C   0  0  0  0  0  0  0  0  0  0  0  0
   11.6330    3.8570    0.0000 C   0  0  0  0  0  0  0  0  0  0  0  0
   12.9686    2.3684    0.0000 C   0  0  0  0  0  0  0  0  0  0  0  0
   12.6115    4.0633    0.0000 C   0  0  0  0  0  0  0  0  0  0  0  0
   13.2793    3.3190    0.0000 C   0  0  0  0  0  0  0  0  0  0  0  0
   14.5685    4.4757    0.0000 C   0  0  0  0  0  0  0  0  0  0  0  0
    6.2690   -3.1324    0.0000 H   0  0  0  0  0  0  0  0  0  0  0  0
    4.6402   -1.6346    0.0000 H   0  0  0  0  0  0  0  0  0  0  0  0
    4.8046   -2.4146    0.0000 H   0  0  0  0  0  0  0  0  0  0  0  0
    6.8540   -3.0844    0.0000 H   0  0  0  0  0  0  0  0  0  0  0  0
    7.4473   -2.5521    0.0000 H   0  0  0  0  0  0  0  0  0  0  0  0
    5.4772   -0.3565    0.0000 H   0  0  0  0  0  0  0  0  0  0  0  0
    4.8840   -0.8888    0.0000 H   0  0  0  0  0  0  0  0  0  0  0  0
    7.6910   -1.8062    0.0000 H   0  0  0  0  0  0  0  0  0  0  0  0
    7.5267   -1.0263    0.0000 H   0  0  0  0  0  0  0  0  0  0  0  0
    6.7664    0.8003    0.0000 H   0  0  0  0  0  0  0  0  0  0  0  0
    6.1731    0.2680    0.0000 H   0  0  0  0  0  0  0  0  0  0  0  0
    7.7860   -0.2328    0.0000 H   0  0  0  0  0  0  0  0  0  0  0  0
    8.3793    0.2995    0.0000 H   0  0  0  0  0  0  0  0  0  0  0  0
    8.0556    1.9570    0.0000 H   0  0  0  0  0  0  0  0  0  0  0  0
    7.4623    1.4247    0.0000 H   0  0  0  0  0  0  0  0  0  0  0  0
    9.0752    0.9239    0.0000 H   0  0  0  0  0  0  0  0  0  0  0  0
    9.6684    1.4562    0.0000 H   0  0  0  0  0  0  0  0  0  0  0  0
    3.7320   -2.8062    0.0000 H   0  0  0  0  0  0  0  0  0  0  0  0
    3.7320   -6.0462    0.0000 H   0  0  0  0  0  0  0  0  0  0  0  0
    8.9512    2.9556    0.0000 H   0  0  0  0  0  0  0  0  0  0  0  0
    2.3291   -3.6162    0.0000 H   0  0  0  0  0  0  0  0  0  0  0  0
   11.7975    1.5729    0.0000 H   0  0  0  0  0  0  0  0  0  0  0  0
   11.2189    4.3185    0.0000 H   0  0  0  0  0  0  0  0  0  0  0  0
   13.3827    1.9070    0.0000 H   0  0  0  0  0  0  0  0  0  0  0  0
   12.8041    4.6526    0.0000 H   0  0  0  0  0  0  0  0  0  0  0  0
  1  7  2  0  0  0  0
  1  8  2  0  0  0  0
  1 12  1  0  0  0  0
  1 29  1  0  0  0  0
  2 28  1  0  0  0  0
  3 35  1  0  0  0  0
  4 35  1  0  0  0  0
  5 35  1  0  0  0  0
  6 11  1  0  0  0  0
  6 23  1  0  0  0  0
  9 34  1  0  0  0  0
  9 35  1  0  0  0  0
 10 16  1  0  0  0  0
 10 17  1  0  0  0  0
 10 18  1  0  0  0  0
 11 19  2  0  0  0  0
 12 24  1  0  0  0  0
 12 55  1  0  0  0  0
 13 14  1  0  0  0  0
 13 15  1  0  0  0  0
 13 19  1  0  0  0  0
 13 36  1  0  0  0  0
 14 16  1  0  0  0  0
 14 37  1  0  0  0  0
 14 38  1  0  0  0  0
 15 17  1  0  0  0  0
 15 39  1  0  0  0  0
 15 40  1  0  0  0  0
 16 41  1  0  0  0  0
 16 42  1  0  0  0  0
 17 43  1  0  0  0  0
 17 44  1  0  0  0  0
 18 20  1  0  0  0  0
 18 45  1  0  0  0  0
 18 46  1  0  0  0  0
 19 21  1  0  0  0  0
 20 22  1  0  0  0  0
 20 47  1  0  0  0  0
 20 48  1  0  0  0  0
 21 23  2  0  0  0  0
 21 25  1  0  0  0  0
 22 24  1  0  0  0  0
 22 49  1  0  0  0  0
 22 50  1  0  0  0  0
 23 26  1  0  0  0  0
 24 51  1  0  0  0  0
 24 52  1  0  0  0  0
 25 27  2  0  0  0  0
 25 53  1  0  0  0  0
 26 28  2  0  0  0  0
 26 54  1  0  0  0  0
 27 28  1  0  0  0  0
 27 56  1  0  0  0  0
 29 30  2  0  0  0  0
 29 31  1  0  0  0  0
 30 32  1  0  0  0  0
 30 57  1  0  0  0  0
 31 33  2  0  0  0  0
 31 58  1  0  0  0  0
 32 34  2  0  0  0  0
 32 59  1  0  0  0  0
 33 34  1  0  0  0  0
 33 60  1  0  0  0  0
M  END
> <PUBCHEM_COMPOUND_CID>
56944287

> <PUBCHEM_COMPOUND_CANONICALIZED>
1

> <PUBCHEM_CACTVS_COMPLEXITY>
766

> <PUBCHEM_CACTVS_HBOND_ACCEPTOR>
11

> <PUBCHEM_CACTVS_HBOND_DONOR>
1

> <PUBCHEM_CACTVS_ROTATABLE_BOND>
9

> <PUBCHEM_CACTVS_SUBSKEYS>
AAADceB7OcBAAAAAAAAAAAAAAAAAAWAAAAA8YIAAAAAAAFgB9AAAHwQUQAAADQzB3hwwh9NQBAKpA6RyQnDCCBAkIAAomLk+TNoMJrqEtZuEMaBm0BmI6ceYyOCOAIAAAAAIAAABAAAAABAAAAAAAAAAAA==

> <PUBCHEM_IUPAC_OPENEYE_NAME>
N-[4-[4-(6-fluoro-1,2-benzoxazol-3-yl)-1-piperidyl]butyl]-4-(trifluoromethoxy)benzenesulfonamide

> <PUBCHEM_IUPAC_CAS_NAME>
N-[4-[4-(6-fluoro-1,2-benzoxazol-3-yl)-1-piperidinyl]butyl]-4-(trifluoromethoxy)benzenesulfonamide

> <PUBCHEM_IUPAC_NAME_MARKUP>
<I>N</I>-[4-[4-(6-fluoro-1,2-benzoxazol-3-yl)piperidin-1-yl]butyl]-4-(trifluoromethoxy)benzenesulfonamide

> <PUBCHEM_IUPAC_NAME>
N-[4-[4-(6-fluoro-1,2-benzoxazol-3-yl)piperidin-1-yl]butyl]-4-(trifluoromethoxy)benzenesulfonamide

> <PUBCHEM_IUPAC_SYSTEMATIC_NAME>
N-[4-[4-(6-fluoranyl-1,2-benzoxazol-3-yl)piperidin-1-yl]butyl]-4-(trifluoromethyloxy)benzenesulfonamide

> <PUBCHEM_IUPAC_TRADITIONAL_NAME>
N-[4-[4-(6-fluoroindoxazen-3-yl)piperidino]butyl]-4-(trifluoromethoxy)benzenesulfonamide

> <PUBCHEM_IUPAC_INCHI>
InChI=1S/C23H25F4N3O4S/c24-17-3-8-20-21(15-17)34-29-22(20)16-9-13-30(14-10-16)12-2-1-11-28-35(31,32)19-6-4-18(5-7-19)33-23(25,26)27/h3-8,15-16,28H,1-2,9-14H2

> <PUBCHEM_IUPAC_INCHIKEY>
KQKAKONSXJYMCD-UHFFFAOYSA-N

> <PUBCHEM_XLOGP3_AA>
5

> <PUBCHEM_EXACT_MASS>
515.15019011

> <PUBCHEM_MOLECULAR_FORMULA>
C23H25F4N3O4S

> <PUBCHEM_MOLECULAR_WEIGHT>
515.5

> <PUBCHEM_OPENEYE_CAN_SMILES>
C1CN(CCC1C2=NOC3=C2C=CC(=C3)F)CCCCNS(=O)(=O)C4=CC=C(C=C4)OC(F)(F)F

> <PUBCHEM_OPENEYE_ISO_SMILES>
C1CN(CCC1C2=NOC3=C2C=CC(=C3)F)CCCCNS(=O)(=O)C4=CC=C(C=C4)OC(F)(F)F

> <PUBCHEM_CACTVS_TPSA>
93

> <PUBCHEM_MONOISOTOPIC_WEIGHT>
515.15019011

> <PUBCHEM_TOTAL_CHARGE>
0

> <PUBCHEM_HEAVY_ATOM_COUNT>
35

> <PUBCHEM_ATOM_DEF_STEREO_COUNT>
0

> <PUBCHEM_ATOM_UDEF_STEREO_COUNT>
0

> <PUBCHEM_BOND_DEF_STEREO_COUNT>
0

> <PUBCHEM_BOND_UDEF_STEREO_COUNT>
0

> <PUBCHEM_ISOTOPIC_ATOM_COUNT>
0

> <PUBCHEM_COMPONENT_COUNT>
1

> <PUBCHEM_CACTVS_TAUTO_COUNT>
-1

> <PUBCHEM_COORDINATE_TYPE>
1
5
255

> <PUBCHEM_BONDANNOTATIONS>
11  19  8
19  21  8
21  23  8
21  25  8
23  26  8
25  27  8
26  28  8
27  28  8
29  30  8
29  31  8
30  32  8
31  33  8
32  34  8
33  34  8
6  11  8
6  23  8

$$$$
