66801430
  -OEChem-09292322392D

 59 62  0     1  0  0  0  0  0999 V2000
    2.0000   -3.1889    0.0000 Cl  0  0  0  0  0  0  0  0  0  0  0  0
    9.3653    2.7314    0.0000 S   0  0  0  0  0  0  0  0  0  0  0  0
   10.3158    2.4207    0.0000 O   0  0  0  0  0  0  0  0  0  0  0  0
    8.4148    3.0421    0.0000 O   0  0  0  0  0  0  0  0  0  0  0  0
    6.4763   -0.5326    0.0000 N   0  0  3  0  0  0  0  0  0  0  0  0
    5.5443   -4.9936    0.0000 N   0  0  0  0  0  0  0  0  0  0  0  0
    9.0546    1.7809    0.0000 N   0  0  0  0  0  0  0  0  0  0  0  0
    5.4978   -0.7388    0.0000 C   0  0  0  0  0  0  0  0  0  0  0  0
    5.1871   -1.6893    0.0000 C   0  0  0  0  0  0  0  0  0  0  0  0
    5.8550   -2.4336    0.0000 C   0  0  0  0  0  0  0  0  0  0  0  0
    7.1441   -1.2769    0.0000 C   0  0  0  0  0  0  0  0  0  0  0  0
    6.7870    0.4179    0.0000 C   0  0  0  0  0  0  0  0  0  0  0  0
    5.5443   -3.3842    0.0000 C   0  0  0  0  0  0  0  0  0  0  0  0
    6.8335   -2.2274    0.0000 C   0  0  0  0  0  0  0  0  0  0  0  0
    7.7654    0.6241    0.0000 C   0  0  0  0  0  0  0  0  0  0  0  0
    4.5981   -3.6889    0.0000 C   0  0  0  0  0  0  0  0  0  0  0  0
    6.1279   -4.1889    0.0000 C   0  0  0  0  0  0  0  0  0  0  0  0
    8.0761    1.5747    0.0000 C   0  0  0  0  0  0  0  0  0  0  0  0
    4.5981   -4.6889    0.0000 C   0  0  0  0  0  0  0  0  0  0  0  0
    3.7320   -3.1889    0.0000 C   0  0  0  0  0  0  0  0  0  0  0  0
    7.1279   -4.1889    0.0000 C   0  0  0  0  0  0  0  0  0  0  0  0
    3.7320   -5.1889    0.0000 C   0  0  0  0  0  0  0  0  0  0  0  0
    2.8660   -3.6889    0.0000 C   0  0  0  0  0  0  0  0  0  0  0  0
    2.8660   -4.6889    0.0000 C   0  0  0  0  0  0  0  0  0  0  0  0
    9.6759    3.6819    0.0000 C   0  0  0  0  0  0  0  0  0  0  0  0
   10.6545    3.8881    0.0000 C   0  0  0  0  0  0  0  0  0  0  0  0
    9.0081    4.4262    0.0000 C   0  0  0  0  0  0  0  0  0  0  0  0
   10.9651    4.8386    0.0000 C   0  0  0  0  0  0  0  0  0  0  0  0
    9.3188    5.3767    0.0000 C   0  0  0  0  0  0  0  0  0  0  0  0
   10.2973    5.5830    0.0000 C   0  0  0  0  0  0  0  0  0  0  0  0
   11.9436    5.0449    0.0000 C   0  0  0  0  0  0  0  0  0  0  0  0
    5.4772   -0.1192    0.0000 H   0  0  0  0  0  0  0  0  0  0  0  0
    4.8840   -0.6515    0.0000 H   0  0  0  0  0  0  0  0  0  0  0  0
    4.6402   -1.3973    0.0000 H   0  0  0  0  0  0  0  0  0  0  0  0
    4.8046   -2.1772    0.0000 H   0  0  0  0  0  0  0  0  0  0  0  0
    7.6910   -1.5689    0.0000 H   0  0  0  0  0  0  0  0  0  0  0  0
    7.5267   -0.7890    0.0000 H   0  0  0  0  0  0  0  0  0  0  0  0
    6.7664    1.0376    0.0000 H   0  0  0  0  0  0  0  0  0  0  0  0
    6.1731    0.5053    0.0000 H   0  0  0  0  0  0  0  0  0  0  0  0
    7.2475   -2.6889    0.0000 H   0  0  0  0  0  0  0  0  0  0  0  0
    7.7860    0.0045    0.0000 H   0  0  0  0  0  0  0  0  0  0  0  0
    8.3793    0.5368    0.0000 H   0  0  0  0  0  0  0  0  0  0  0  0
    8.0556    2.1943    0.0000 H   0  0  0  0  0  0  0  0  0  0  0  0
    7.4623    1.6620    0.0000 H   0  0  0  0  0  0  0  0  0  0  0  0
    5.7369   -5.5830    0.0000 H   0  0  0  0  0  0  0  0  0  0  0  0
    3.7320   -2.5689    0.0000 H   0  0  0  0  0  0  0  0  0  0  0  0
    7.1279   -4.8089    0.0000 H   0  0  0  0  0  0  0  0  0  0  0  0
    7.7479   -4.1889    0.0000 H   0  0  0  0  0  0  0  0  0  0  0  0
    7.1279   -3.5689    0.0000 H   0  0  0  0  0  0  0  0  0  0  0  0
    9.4687    1.3194    0.0000 H   0  0  0  0  0  0  0  0  0  0  0  0
    3.7320   -5.8089    0.0000 H   0  0  0  0  0  0  0  0  0  0  0  0
    2.3291   -4.9989    0.0000 H   0  0  0  0  0  0  0  0  0  0  0  0
   11.0685    3.4267    0.0000 H   0  0  0  0  0  0  0  0  0  0  0  0
    8.4014    4.2984    0.0000 H   0  0  0  0  0  0  0  0  0  0  0  0
    8.9047    5.8382    0.0000 H   0  0  0  0  0  0  0  0  0  0  0  0
   10.4899    6.1723    0.0000 H   0  0  0  0  0  0  0  0  0  0  0  0
   12.0715    4.4382    0.0000 H   0  0  0  0  0  0  0  0  0  0  0  0
   12.5503    5.1727    0.0000 H   0  0  0  0  0  0  0  0  0  0  0  0
   11.8158    5.6515    0.0000 H   0  0  0  0  0  0  0  0  0  0  0  0
  1 23  1  0  0  0  0
  2  3  2  0  0  0  0
  2  4  2  0  0  0  0
  2  7  1  0  0  0  0
  2 25  1  0  0  0  0
  5  8  1  0  0  0  0
  5 11  1  0  0  0  0
  5 12  1  0  0  0  0
  6 17  1  0  0  0  0
  6 19  1  0  0  0  0
  6 45  1  0  0  0  0
  7 18  1  0  0  0  0
  7 50  1  0  0  0  0
  8  9  1  0  0  0  0
  8 32  1  0  0  0  0
  8 33  1  0  0  0  0
  9 10  1  0  0  0  0
  9 34  1  0  0  0  0
  9 35  1  0  0  0  0
 10 13  1  0  0  0  0
 10 14  2  0  0  0  0
 11 14  1  0  0  0  0
 11 36  1  0  0  0  0
 11 37  1  0  0  0  0
 12 15  1  0  0  0  0
 12 38  1  0  0  0  0
 12 39  1  0  0  0  0
 13 16  1  0  0  0  0
 13 17  2  0  0  0  0
 14 40  1  0  0  0  0
 15 18  1  0  0  0  0
 15 41  1  0  0  0  0
 15 42  1  0  0  0  0
 16 19  2  0  0  0  0
 16 20  1  0  0  0  0
 17 21  1  0  0  0  0
 18 43  1  0  0  0  0
 18 44  1  0  0  0  0
 19 22  1  0  0  0  0
 20 23  2  0  0  0  0
 20 46  1  0  0  0  0
 21 47  1  0  0  0  0
 21 48  1  0  0  0  0
 21 49  1  0  0  0  0
 22 24  2  0  0  0  0
 22 51  1  0  0  0  0
 23 24  1  0  0  0  0
 24 52  1  0  0  0  0
 25 26  1  0  0  0  0
 25 27  2  0  0  0  0
 26 28  2  0  0  0  0
 26 53  1  0  0  0  0
 27 29  1  0  0  0  0
 27 54  1  0  0  0  0
 28 30  1  0  0  0  0
 28 31  1  0  0  0  0
 29 30  2  0  0  0  0
 29 55  1  0  0  0  0
 30 56  1  0  0  0  0
 31 57  1  0  0  0  0
 31 58  1  0  0  0  0
 31 59  1  0  0  0  0
M  END
> <PUBCHEM_COMPOUND_CID>
66801430

> <PUBCHEM_COMPOUND_CANONICALIZED>
1

> <PUBCHEM_CACTVS_COMPLEXITY>
738

> <PUBCHEM_CACTVS_HBOND_ACCEPTOR>
4

> <PUBCHEM_CACTVS_HBOND_DONOR>
2

> <PUBCHEM_CACTVS_ROTATABLE_BOND>
7

> <PUBCHEM_CACTVS_SUBSKEYS>
AAADceB7MABEAAAAAAAAAAAAAAAAAWAAAAAwYIAAAAAAAFgB9AAAHAYQQAAADArBXiQywfPJkAKgAyRiRHDCgDAhByAImbg4ZpgIIOLB05GEIAhgkADIyAcQgMAOgABAoAACAAAAAIFAAAQAAAAAAAAAAA==

> <PUBCHEM_IUPAC_OPENEYE_NAME>
N-[3-[4-(5-chloro-2-methyl-1H-indol-3-yl)-3,6-dihydro-2H-pyridin-1-yl]propyl]-3-methyl-benzenesulfonamide

> <PUBCHEM_IUPAC_CAS_NAME>
N-[3-[4-(5-chloro-2-methyl-1H-indol-3-yl)-3,6-dihydro-2H-pyridin-1-yl]propyl]-3-methylbenzenesulfonamide

> <PUBCHEM_IUPAC_NAME_MARKUP>
<I>N</I>-[3-[4-(5-chloro-2-methyl-1<I>H</I>-indol-3-yl)-3,6-dihydro-2<I>H</I>-pyridin-1-yl]propyl]-3-methylbenzenesulfonamide

> <PUBCHEM_IUPAC_NAME>
N-[3-[4-(5-chloro-2-methyl-1H-indol-3-yl)-3,6-dihydro-2H-pyridin-1-yl]propyl]-3-methylbenzenesulfonamide

> <PUBCHEM_IUPAC_SYSTEMATIC_NAME>
N-[3-[4-(5-chloranyl-2-methyl-1H-indol-3-yl)-3,6-dihydro-2H-pyridin-1-yl]propyl]-3-methyl-benzenesulfonamide

> <PUBCHEM_IUPAC_TRADITIONAL_NAME>
N-[3-[4-(5-chloro-2-methyl-1H-indol-3-yl)-3,6-dihydro-2H-pyridin-1-yl]propyl]-3-methyl-benzenesulfonamide

> <PUBCHEM_IUPAC_INCHI>
InChI=1S/C24H28ClN3O2S/c1-17-5-3-6-21(15-17)31(29,30)26-11-4-12-28-13-9-19(10-14-28)24-18(2)27-23-8-7-20(25)16-22(23)24/h3,5-9,15-16,26-27H,4,10-14H2,1-2H3

> <PUBCHEM_IUPAC_INCHIKEY>
VHQMQGFUKJJJQZ-UHFFFAOYSA-N

> <PUBCHEM_XLOGP3_AA>
4.7

> <PUBCHEM_EXACT_MASS>
457.1590760

> <PUBCHEM_MOLECULAR_FORMULA>
C24H28ClN3O2S

> <PUBCHEM_MOLECULAR_WEIGHT>
458.0

> <PUBCHEM_OPENEYE_CAN_SMILES>
CC1=CC(=CC=C1)S(=O)(=O)NCCCN2CCC(=CC2)C3=C(NC4=C3C=C(C=C4)Cl)C

> <PUBCHEM_OPENEYE_ISO_SMILES>
CC1=CC(=CC=C1)S(=O)(=O)NCCCN2CCC(=CC2)C3=C(NC4=C3C=C(C=C4)Cl)C

> <PUBCHEM_CACTVS_TPSA>
73.6

> <PUBCHEM_MONOISOTOPIC_WEIGHT>
457.1590760

> <PUBCHEM_TOTAL_CHARGE>
0

> <PUBCHEM_HEAVY_ATOM_COUNT>
31

> <PUBCHEM_ATOM_DEF_STEREO_COUNT>
0

> <PUBCHEM_ATOM_UDEF_STEREO_COUNT>
0

> <PUBCHEM_BOND_DEF_STEREO_COUNT>
0

> <PUBCHEM_BOND_UDEF_STEREO_COUNT>
0

> <PUBCHEM_ISOTOPIC_ATOM_COUNT>
0

> <PUBCHEM_COMPONENT_COUNT>
1

> <PUBCHEM_CACTVS_TAUTO_COUNT>
-1

> <PUBCHEM_COORDINATE_TYPE>
1
5
255

> <PUBCHEM_BONDANNOTATIONS>
13  16  8
13  17  8
16  19  8
16  20  8
19  22  8
20  23  8
22  24  8
23  24  8
25  26  8
25  27  8
26  28  8
27  29  8
28  30  8
29  30  8
6  17  8
6  19  8

$$$$
