53318564
  -OEChem-09292322312D

 96101  0     1  0  0  0  0  0999 V2000
    2.8602    0.7991    0.0000 S   0  0  0  0  0  0  0  0  0  0  0  0
    5.4176   -2.7307    0.0000 O   0  0  0  0  0  0  0  0  0  0  0  0
    3.3702    1.6593    0.0000 O   0  0  0  0  0  0  0  0  0  0  0  0
    2.3502   -0.0611    0.0000 O   0  0  0  0  0  0  0  0  0  0  0  0
    7.2536    6.2487    0.0000 O   0  0  0  0  0  0  0  0  0  0  0  0
    8.8903   -5.7622    0.0000 N   0  0  3  0  0  0  0  0  0  0  0  0
    5.4870    3.2689    0.0000 N   0  0  0  0  0  0  0  0  0  0  0  0
    5.5101    5.2688    0.0000 N   0  0  0  0  0  0  0  0  0  0  0  0
    3.7204    0.2891    0.0000 N   0  0  3  0  0  0  0  0  0  0  0  0
    8.0320   -5.2653    0.0000 C   0  0  3  0  0  0  0  0  0  0  0  0
    8.0320   -4.2653    0.0000 C   0  0  0  0  0  0  0  0  0  0  0  0
    7.1660   -5.7653    0.0000 C   0  0  0  0  0  0  0  0  0  0  0  0
    9.7557   -5.2780    0.0000 C   0  0  0  0  0  0  0  0  0  0  0  0
    8.9420   -3.7584    0.0000 C   0  0  0  0  0  0  0  0  0  0  0  0
    9.7814   -4.2867    0.0000 C   0  0  0  0  0  0  0  0  0  0  0  0
    7.1660   -3.7653    0.0000 C   0  0  0  0  0  0  0  0  0  0  0  0
    6.3000   -5.2653    0.0000 C   0  0  0  0  0  0  0  0  0  0  0  0
    6.3000   -4.2653    0.0000 C   0  0  0  0  0  0  0  0  0  0  0  0
    8.8829   -6.7622    0.0000 C   0  0  0  0  0  0  0  0  0  0  0  0
    8.9501   -2.7168    0.0000 C   0  0  0  0  0  0  0  0  0  0  0  0
    7.1500   -2.7238    0.0000 C   0  0  0  0  0  0  0  0  0  0  0  0
    9.7452   -7.2686    0.0000 C   0  0  0  0  0  0  0  0  0  0  0  0
    5.4060   -3.7306    0.0000 C   0  0  0  0  0  0  0  0  0  0  0  0
    5.4060   -5.8000    0.0000 C   0  0  0  0  0  0  0  0  0  0  0  0
    8.0480   -2.1960    0.0000 C   0  0  0  0  0  0  0  0  0  0  0  0
    4.5000   -4.2445    0.0000 C   0  0  0  0  0  0  0  0  0  0  0  0
    4.5000   -5.2861    0.0000 C   0  0  0  0  0  0  0  0  0  0  0  0
    6.3588    3.7588    0.0000 C   0  0  0  0  0  0  0  0  0  0  0  0
    4.6268    3.7789    0.0000 C   0  0  0  0  0  0  0  0  0  0  0  0
    5.4754    2.2690    0.0000 C   0  0  0  0  0  0  0  0  0  0  0  0
    9.7378   -8.2686    0.0000 C   0  0  0  0  0  0  0  0  0  0  0  0
    6.3703    4.7588    0.0000 C   0  0  0  0  0  0  0  0  0  0  0  0
    4.6384    4.7788    0.0000 C   0  0  0  0  0  0  0  0  0  0  0  0
    4.6037    1.7790    0.0000 C   0  0  0  0  0  0  0  0  0  0  0  0
    4.5921    0.7791    0.0000 C   0  0  0  0  0  0  0  0  0  0  0  0
    4.5574   -2.2207    0.0000 C   0  0  0  0  0  0  0  0  0  0  0  0
    4.5690   -1.2208    0.0000 C   0  0  0  0  0  0  0  0  0  0  0  0
    3.7088   -0.7108    0.0000 C   0  0  0  0  0  0  0  0  0  0  0  0
    5.5217    6.2687    0.0000 C   0  0  0  0  0  0  0  0  0  0  0  0
    6.3934    6.7586    0.0000 C   0  0  0  0  0  0  0  0  0  0  0  0
    4.6615    6.7787    0.0000 C   0  0  0  0  0  0  0  0  0  0  0  0
    2.0000    1.3091    0.0000 C   0  0  0  0  0  0  0  0  0  0  0  0
    6.4050    7.7586    0.0000 C   0  0  0  0  0  0  0  0  0  0  0  0
    4.6731    7.7786    0.0000 C   0  0  0  0  0  0  0  0  0  0  0  0
    5.5448    8.2686    0.0000 C   0  0  0  0  0  0  0  0  0  0  0  0
    8.1254    6.7386    0.0000 C   0  0  0  0  0  0  0  0  0  0  0  0
    8.0317   -5.8853    0.0000 H   0  0  0  0  0  0  0  0  0  0  0  0
    6.7675   -6.2402    0.0000 H   0  0  0  0  0  0  0  0  0  0  0  0
    7.5646   -6.2402    0.0000 H   0  0  0  0  0  0  0  0  0  0  0  0
    9.9575   -5.8643    0.0000 H   0  0  0  0  0  0  0  0  0  0  0  0
   10.3685   -5.1837    0.0000 H   0  0  0  0  0  0  0  0  0  0  0  0
   10.3884   -4.4126    0.0000 H   0  0  0  0  0  0  0  0  0  0  0  0
   10.0131   -3.7116    0.0000 H   0  0  0  0  0  0  0  0  0  0  0  0
    8.2731   -6.6500    0.0000 H   0  0  0  0  0  0  0  0  0  0  0  0
    8.6665   -7.3432    0.0000 H   0  0  0  0  0  0  0  0  0  0  0  0
    9.4882   -2.4089    0.0000 H   0  0  0  0  0  0  0  0  0  0  0  0
    6.6095   -2.4200    0.0000 H   0  0  0  0  0  0  0  0  0  0  0  0
   10.3549   -7.3808    0.0000 H   0  0  0  0  0  0  0  0  0  0  0  0
    9.9615   -6.6876    0.0000 H   0  0  0  0  0  0  0  0  0  0  0  0
    5.4132   -6.4199    0.0000 H   0  0  0  0  0  0  0  0  0  0  0  0
    8.0456   -1.5760    0.0000 H   0  0  0  0  0  0  0  0  0  0  0  0
    3.9642   -3.9324    0.0000 H   0  0  0  0  0  0  0  0  0  0  0  0
    3.9642   -5.5982    0.0000 H   0  0  0  0  0  0  0  0  0  0  0  0
    6.5640    3.1738    0.0000 H   0  0  0  0  0  0  0  0  0  0  0  0
    6.9705    3.8594    0.0000 H   0  0  0  0  0  0  0  0  0  0  0  0
    4.0175    3.8936    0.0000 H   0  0  0  0  0  0  0  0  0  0  0  0
    4.4080    3.1988    0.0000 H   0  0  0  0  0  0  0  0  0  0  0  0
    5.6807    1.6839    0.0000 H   0  0  0  0  0  0  0  0  0  0  0  0
    6.0872    2.3696    0.0000 H   0  0  0  0  0  0  0  0  0  0  0  0
    6.9796    4.6441    0.0000 H   0  0  0  0  0  0  0  0  0  0  0  0
    6.5891    5.3389    0.0000 H   0  0  0  0  0  0  0  0  0  0  0  0
    4.4331    5.3638    0.0000 H   0  0  0  0  0  0  0  0  0  0  0  0
    4.0266    4.6782    0.0000 H   0  0  0  0  0  0  0  0  0  0  0  0
    9.1178   -8.2640    0.0000 H   0  0  0  0  0  0  0  0  0  0  0  0
    9.7332   -8.8886    0.0000 H   0  0  0  0  0  0  0  0  0  0  0  0
   10.3577   -8.2732    0.0000 H   0  0  0  0  0  0  0  0  0  0  0  0
    4.3984    2.3640    0.0000 H   0  0  0  0  0  0  0  0  0  0  0  0
    3.9919    1.6784    0.0000 H   0  0  0  0  0  0  0  0  0  0  0  0
    4.7974    0.1941    0.0000 H   0  0  0  0  0  0  0  0  0  0  0  0
    5.2039    0.8797    0.0000 H   0  0  0  0  0  0  0  0  0  0  0  0
    3.9481   -2.1060    0.0000 H   0  0  0  0  0  0  0  0  0  0  0  0
    4.3387   -2.8008    0.0000 H   0  0  0  0  0  0  0  0  0  0  0  0
    5.1783   -1.3355    0.0000 H   0  0  0  0  0  0  0  0  0  0  0  0
    4.7878   -0.6407    0.0000 H   0  0  0  0  0  0  0  0  0  0  0  0
    3.0995   -0.5961    0.0000 H   0  0  0  0  0  0  0  0  0  0  0  0
    3.4900   -1.2909    0.0000 H   0  0  0  0  0  0  0  0  0  0  0  0
    4.1210    6.4749    0.0000 H   0  0  0  0  0  0  0  0  0  0  0  0
    2.3162    1.8424    0.0000 H   0  0  0  0  0  0  0  0  0  0  0  0
    1.4667    1.6253    0.0000 H   0  0  0  0  0  0  0  0  0  0  0  0
    1.6838    0.7758    0.0000 H   0  0  0  0  0  0  0  0  0  0  0  0
    6.9455    8.0624    0.0000 H   0  0  0  0  0  0  0  0  0  0  0  0
    4.1398    8.0948    0.0000 H   0  0  0  0  0  0  0  0  0  0  0  0
    5.5520    8.8885    0.0000 H   0  0  0  0  0  0  0  0  0  0  0  0
    8.4291    6.1981    0.0000 H   0  0  0  0  0  0  0  0  0  0  0  0
    8.6659    7.0424    0.0000 H   0  0  0  0  0  0  0  0  0  0  0  0
    7.8216    7.2791    0.0000 H   0  0  0  0  0  0  0  0  0  0  0  0
  1  3  2  0  0  0  0
  1  4  2  0  0  0  0
  1  9  1  0  0  0  0
  1 42  1  0  0  0  0
  2 23  1  0  0  0  0
  2 36  1  0  0  0  0
  5 40  1  0  0  0  0
  5 46  1  0  0  0  0
  6 10  1  0  0  0  0
  6 13  1  0  0  0  0
  6 19  1  0  0  0  0
  7 28  1  0  0  0  0
  7 29  1  0  0  0  0
  7 30  1  0  0  0  0
  8 32  1  0  0  0  0
  8 33  1  0  0  0  0
  8 39  1  0  0  0  0
  9 35  1  0  0  0  0
  9 38  1  0  0  0  0
 10 11  1  0  0  0  0
 10 12  1  0  0  0  0
 10 47  1  0  0  0  0
 11 14  2  0  0  0  0
 11 16  1  0  0  0  0
 12 17  1  0  0  0  0
 12 48  1  0  0  0  0
 12 49  1  0  0  0  0
 13 15  1  0  0  0  0
 13 50  1  0  0  0  0
 13 51  1  0  0  0  0
 14 15  1  0  0  0  0
 14 20  1  0  0  0  0
 15 52  1  0  0  0  0
 15 53  1  0  0  0  0
 16 18  1  0  0  0  0
 16 21  2  0  0  0  0
 17 18  2  0  0  0  0
 17 24  1  0  0  0  0
 18 23  1  0  0  0  0
 19 22  1  0  0  0  0
 19 54  1  0  0  0  0
 19 55  1  0  0  0  0
 20 25  2  0  0  0  0
 20 56  1  0  0  0  0
 21 25  1  0  0  0  0
 21 57  1  0  0  0  0
 22 31  1  0  0  0  0
 22 58  1  0  0  0  0
 22 59  1  0  0  0  0
 23 26  2  0  0  0  0
 24 27  2  0  0  0  0
 24 60  1  0  0  0  0
 25 61  1  0  0  0  0
 26 27  1  0  0  0  0
 26 62  1  0  0  0  0
 27 63  1  0  0  0  0
 28 32  1  0  0  0  0
 28 64  1  0  0  0  0
 28 65  1  0  0  0  0
 29 33  1  0  0  0  0
 29 66  1  0  0  0  0
 29 67  1  0  0  0  0
 30 34  1  0  0  0  0
 30 68  1  0  0  0  0
 30 69  1  0  0  0  0
 31 74  1  0  0  0  0
 31 75  1  0  0  0  0
 31 76  1  0  0  0  0
 32 70  1  0  0  0  0
 32 71  1  0  0  0  0
 33 72  1  0  0  0  0
 33 73  1  0  0  0  0
 34 35  1  0  0  0  0
 34 77  1  0  0  0  0
 34 78  1  0  0  0  0
 35 79  1  0  0  0  0
 35 80  1  0  0  0  0
 36 37  1  0  0  0  0
 36 81  1  0  0  0  0
 36 82  1  0  0  0  0
 37 38  1  0  0  0  0
 37 83  1  0  0  0  0
 37 84  1  0  0  0  0
 38 85  1  0  0  0  0
 38 86  1  0  0  0  0
 39 40  1  0  0  0  0
 39 41  2  0  0  0  0
 40 43  2  0  0  0  0
 41 44  1  0  0  0  0
 41 87  1  0  0  0  0
 42 88  1  0  0  0  0
 42 89  1  0  0  0  0
 42 90  1  0  0  0  0
 43 45  1  0  0  0  0
 43 91  1  0  0  0  0
 44 45  2  0  0  0  0
 44 92  1  0  0  0  0
 45 93  1  0  0  0  0
 46 94  1  0  0  0  0
 46 95  1  0  0  0  0
 46 96  1  0  0  0  0
M  END
> <PUBCHEM_COMPOUND_CID>
53318564

> <PUBCHEM_COMPOUND_CANONICALIZED>
1

> <PUBCHEM_CACTVS_COMPLEXITY>
1030

> <PUBCHEM_CACTVS_HBOND_ACCEPTOR>
8

> <PUBCHEM_CACTVS_HBOND_DONOR>
0

> <PUBCHEM_CACTVS_ROTATABLE_BOND>
14

> <PUBCHEM_CACTVS_SUBSKEYS>
AAADcfB/uABAAAAAAAAAAAAAAAAAAAAAAAA8eMGCAAAAAADxUAAAHgQAQAAADCzhmAayxoMABAKAAiRCQHCCCAAhIgAIiAAPbIgOZiLE8ZuXOCjmwBHY6AeQ0PMOgAADAAAYEACQAAaAADQgAAAAAAAAAA==

> <PUBCHEM_IUPAC_OPENEYE_NAME>
N-[3-[4-(2-methoxyphenyl)piperazin-1-yl]propyl]-N-[3-[(6-propyl-5,6,6a,7-tetrahydro-4H-dibenzo[de,g]quinolin-11-yl)oxy]propyl]methanesulfonamide

> <PUBCHEM_IUPAC_CAS_NAME>
N-[3-[4-(2-methoxyphenyl)-1-piperazinyl]propyl]-N-[3-[(6-propyl-5,6,6a,7-tetrahydro-4H-dibenzo[de,g]quinolin-11-yl)oxy]propyl]methanesulfonamide

> <PUBCHEM_IUPAC_NAME_MARKUP>
<I>N</I>-[3-[4-(2-methoxyphenyl)piperazin-1-yl]propyl]-<I>N</I>-[3-[(6-propyl-5,6,6<I>a</I>,7-tetrahydro-4<I>H</I>-dibenzo[de,g]quinolin-11-yl)oxy]propyl]methanesulfonamide

> <PUBCHEM_IUPAC_NAME>
N-[3-[4-(2-methoxyphenyl)piperazin-1-yl]propyl]-N-[3-[(6-propyl-5,6,6a,7-tetrahydro-4H-dibenzo[de,g]quinolin-11-yl)oxy]propyl]methanesulfonamide

> <PUBCHEM_IUPAC_SYSTEMATIC_NAME>
N-[3-[4-(2-methoxyphenyl)piperazin-1-yl]propyl]-N-[3-[(6-propyl-5,6,6a,7-tetrahydro-4H-dibenzo[de,g]quinolin-11-yl)oxy]propyl]methanesulfonamide

> <PUBCHEM_IUPAC_TRADITIONAL_NAME>
N-[3-[4-(2-methoxyphenyl)piperazino]propyl]-N-[3-[(6-propyl-5,6,6a,7-tetrahydro-4H-dibenzo[de,g]quinolin-11-yl)oxy]propyl]methanesulfonamide

> <PUBCHEM_IUPAC_INCHI>
InChI=1S/C37H50N4O4S/c1-4-18-39-22-17-29-11-7-13-31-36(29)33(39)28-30-12-8-16-35(37(30)31)45-27-10-21-41(46(3,42)43)20-9-19-38-23-25-40(26-24-38)32-14-5-6-15-34(32)44-2/h5-8,11-16,33H,4,9-10,17-28H2,1-3H3

> <PUBCHEM_IUPAC_INCHIKEY>
JRVSGBSKZMZOOC-UHFFFAOYSA-N

> <PUBCHEM_XLOGP3_AA>
6

> <PUBCHEM_EXACT_MASS>
646.35527726

> <PUBCHEM_MOLECULAR_FORMULA>
C37H50N4O4S

> <PUBCHEM_MOLECULAR_WEIGHT>
646.9

> <PUBCHEM_OPENEYE_CAN_SMILES>
CCCN1CCC2=C3C1CC4=C(C3=CC=C2)C(=CC=C4)OCCCN(CCCN5CCN(CC5)C6=CC=CC=C6OC)S(=O)(=O)C

> <PUBCHEM_OPENEYE_ISO_SMILES>
CCCN1CCC2=C3C1CC4=C(C3=CC=C2)C(=CC=C4)OCCCN(CCCN5CCN(CC5)C6=CC=CC=C6OC)S(=O)(=O)C

> <PUBCHEM_CACTVS_TPSA>
73.9

> <PUBCHEM_MONOISOTOPIC_WEIGHT>
646.35527726

> <PUBCHEM_TOTAL_CHARGE>
0

> <PUBCHEM_HEAVY_ATOM_COUNT>
46

> <PUBCHEM_ATOM_DEF_STEREO_COUNT>
0

> <PUBCHEM_ATOM_UDEF_STEREO_COUNT>
1

> <PUBCHEM_BOND_DEF_STEREO_COUNT>
0

> <PUBCHEM_BOND_UDEF_STEREO_COUNT>
0

> <PUBCHEM_ISOTOPIC_ATOM_COUNT>
0

> <PUBCHEM_COMPONENT_COUNT>
1

> <PUBCHEM_CACTVS_TAUTO_COUNT>
-1

> <PUBCHEM_COORDINATE_TYPE>
1
5
255

> <PUBCHEM_BONDANNOTATIONS>
10  12  3
11  14  8
11  16  8
14  20  8
16  21  8
17  18  8
17  24  8
18  23  8
20  25  8
21  25  8
23  26  8
24  27  8
26  27  8
39  40  8
39  41  8
40  43  8
41  44  8
43  45  8
44  45  8

$$$$
