44374637
  -OEChem-09292322202D

 52 53  0     1  0  0  0  0  0999 V2000
    8.9387   -2.3372    0.0000 S   0  0  0  0  0  0  0  0  0  0  0  0
   10.6591   -3.3572    0.0000 F   0  0  0  0  0  0  0  0  0  0  0  0
    9.2889   -3.7074    0.0000 F   0  0  0  0  0  0  0  0  0  0  0  0
   10.3089   -1.9870    0.0000 F   0  0  0  0  0  0  0  0  0  0  0  0
    8.0785   -1.8272    0.0000 O   0  0  0  0  0  0  0  0  0  0  0  0
    8.4287   -3.1974    0.0000 O   0  0  0  0  0  0  0  0  0  0  0  0
    9.4487   -1.4770    0.0000 O   0  0  0  0  0  0  0  0  0  0  0  0
    4.5981    1.2074    0.0000 N   0  0  0  0  0  0  0  0  0  0  0  0
    5.4641    0.7074    0.0000 C   0  0  1  0  0  0  0  0  0  0  0  0
    6.3301    1.2074    0.0000 C   0  0  2  0  0  0  0  0  0  0  0  0
    5.4641   -0.2926    0.0000 C   0  0  0  0  0  0  0  0  0  0  0  0
    6.3301   -0.7926    0.0000 C   0  0  0  0  0  0  0  0  0  0  0  0
    7.1962    0.7074    0.0000 C   0  0  0  0  0  0  0  0  0  0  0  0
    7.1962   -0.2926    0.0000 C   0  0  0  0  0  0  0  0  0  0  0  0
    6.3301    2.2074    0.0000 C   0  0  0  0  0  0  0  0  0  0  0  0
    3.7320    0.7074    0.0000 C   0  0  0  0  0  0  0  0  0  0  0  0
    4.5981    2.2074    0.0000 C   0  0  0  0  0  0  0  0  0  0  0  0
    8.0901    1.2420    0.0000 C   0  0  0  0  0  0  0  0  0  0  0  0
    8.0901   -0.8273    0.0000 C   0  0  0  0  0  0  0  0  0  0  0  0
    2.8660    1.2074    0.0000 C   0  0  0  0  0  0  0  0  0  0  0  0
    3.7320    2.7074    0.0000 C   0  0  0  0  0  0  0  0  0  0  0  0
    8.9962    0.7282    0.0000 C   0  0  0  0  0  0  0  0  0  0  0  0
    8.9962   -0.3134    0.0000 C   0  0  0  0  0  0  0  0  0  0  0  0
    2.0000    0.7074    0.0000 C   0  0  0  0  0  0  0  0  0  0  0  0
    3.7320    3.7074    0.0000 C   0  0  0  0  0  0  0  0  0  0  0  0
    9.7989   -2.8472    0.0000 C   0  0  0  0  0  0  0  0  0  0  0  0
    5.4641    1.3274    0.0000 H   0  0  0  0  0  0  0  0  0  0  0  0
    6.8671    1.5174    0.0000 H   0  0  0  0  0  0  0  0  0  0  0  0
    4.8535   -0.1850    0.0000 H   0  0  0  0  0  0  0  0  0  0  0  0
    5.2520   -0.8752    0.0000 H   0  0  0  0  0  0  0  0  0  0  0  0
    5.9316   -1.2676    0.0000 H   0  0  0  0  0  0  0  0  0  0  0  0
    6.7287   -1.2676    0.0000 H   0  0  0  0  0  0  0  0  0  0  0  0
    6.9501    2.2074    0.0000 H   0  0  0  0  0  0  0  0  0  0  0  0
    6.3301    2.8274    0.0000 H   0  0  0  0  0  0  0  0  0  0  0  0
    5.7101    2.2074    0.0000 H   0  0  0  0  0  0  0  0  0  0  0  0
    3.3335    0.2324    0.0000 H   0  0  0  0  0  0  0  0  0  0  0  0
    4.1306    0.2324    0.0000 H   0  0  0  0  0  0  0  0  0  0  0  0
    5.2087    2.0997    0.0000 H   0  0  0  0  0  0  0  0  0  0  0  0
    4.8101    2.7900    0.0000 H   0  0  0  0  0  0  0  0  0  0  0  0
    8.0829    1.8620    0.0000 H   0  0  0  0  0  0  0  0  0  0  0  0
    3.2646    1.6823    0.0000 H   0  0  0  0  0  0  0  0  0  0  0  0
    2.4675    1.6823    0.0000 H   0  0  0  0  0  0  0  0  0  0  0  0
    3.1215    2.8150    0.0000 H   0  0  0  0  0  0  0  0  0  0  0  0
    3.5200    2.1248    0.0000 H   0  0  0  0  0  0  0  0  0  0  0  0
    9.5319    1.0402    0.0000 H   0  0  0  0  0  0  0  0  0  0  0  0
    9.5319   -0.6255    0.0000 H   0  0  0  0  0  0  0  0  0  0  0  0
    1.6900    1.2443    0.0000 H   0  0  0  0  0  0  0  0  0  0  0  0
    1.4631    0.3974    0.0000 H   0  0  0  0  0  0  0  0  0  0  0  0
    2.3100    0.1704    0.0000 H   0  0  0  0  0  0  0  0  0  0  0  0
    4.3520    3.7074    0.0000 H   0  0  0  0  0  0  0  0  0  0  0  0
    3.7320    4.3274    0.0000 H   0  0  0  0  0  0  0  0  0  0  0  0
    3.1120    3.7074    0.0000 H   0  0  0  0  0  0  0  0  0  0  0  0
  1  5  1  0  0  0  0
  1  6  2  0  0  0  0
  1  7  2  0  0  0  0
  1 26  1  0  0  0  0
  2 26  1  0  0  0  0
  3 26  1  0  0  0  0
  4 26  1  0  0  0  0
  5 19  1  0  0  0  0
  9  8  1  1  0  0  0
  8 16  1  0  0  0  0
  8 17  1  0  0  0  0
  9 10  1  0  0  0  0
  9 11  1  0  0  0  0
  9 27  1  0  0  0  0
 10 13  1  0  0  0  0
 10 15  1  1  0  0  0
 10 28  1  0  0  0  0
 11 12  1  0  0  0  0
 11 29  1  0  0  0  0
 11 30  1  0  0  0  0
 12 14  1  0  0  0  0
 12 31  1  0  0  0  0
 12 32  1  0  0  0  0
 13 14  2  0  0  0  0
 13 18  1  0  0  0  0
 14 19  1  0  0  0  0
 15 33  1  0  0  0  0
 15 34  1  0  0  0  0
 15 35  1  0  0  0  0
 16 20  1  0  0  0  0
 16 36  1  0  0  0  0
 16 37  1  0  0  0  0
 17 21  1  0  0  0  0
 17 38  1  0  0  0  0
 17 39  1  0  0  0  0
 18 22  2  0  0  0  0
 18 40  1  0  0  0  0
 19 23  2  0  0  0  0
 20 24  1  0  0  0  0
 20 41  1  0  0  0  0
 20 42  1  0  0  0  0
 21 25  1  0  0  0  0
 21 43  1  0  0  0  0
 21 44  1  0  0  0  0
 22 23  1  0  0  0  0
 22 45  1  0  0  0  0
 23 46  1  0  0  0  0
 24 47  1  0  0  0  0
 24 48  1  0  0  0  0
 24 49  1  0  0  0  0
 25 50  1  0  0  0  0
 25 51  1  0  0  0  0
 25 52  1  0  0  0  0
M  END
> <PUBCHEM_COMPOUND_CID>
44374637

> <PUBCHEM_COMPOUND_CANONICALIZED>
1

> <PUBCHEM_CACTVS_COMPLEXITY>
541

> <PUBCHEM_CACTVS_HBOND_ACCEPTOR>
7

> <PUBCHEM_CACTVS_HBOND_DONOR>
0

> <PUBCHEM_CACTVS_ROTATABLE_BOND>
7

> <PUBCHEM_CACTVS_SUBSKEYS>
AAADceB6MYBAAAAAAAAAAAAAAAAAAAAAAAAwYAAAAAAAAADBAAAAHwQAAAAADSzBmBQyBoMAAAKAAiBCAHACAAAgIAAIiAAOCIgIJiKAkROEMAAkwBGIiAeQ0PMOgAABAAAYAAAQAAaAADQAAAAAAAAAAA==

> <PUBCHEM_IUPAC_OPENEYE_NAME>
[(1S,2R)-2-(dipropylamino)-1-methyl-tetralin-5-yl] trifluoromethanesulfonate

> <PUBCHEM_IUPAC_CAS_NAME>
trifluoromethanesulfonic acid [(5S,6R)-6-(dipropylamino)-5-methyl-5,6,7,8-tetrahydronaphthalen-1-yl] ester

> <PUBCHEM_IUPAC_NAME_MARKUP>
[(5<I>S</I>,6<I>R</I>)-6-(dipropylamino)-5-methyl-5,6,7,8-tetrahydronaphthalen-1-yl] trifluoromethanesulfonate

> <PUBCHEM_IUPAC_NAME>
[(5S,6R)-6-(dipropylamino)-5-methyl-5,6,7,8-tetrahydronaphthalen-1-yl] trifluoromethanesulfonate

> <PUBCHEM_IUPAC_SYSTEMATIC_NAME>
[(5S,6R)-6-(dipropylamino)-5-methyl-5,6,7,8-tetrahydronaphthalen-1-yl] tris(fluoranyl)methanesulfonate

> <PUBCHEM_IUPAC_TRADITIONAL_NAME>
trifluoromethanesulfonic acid [(1S,2R)-2-(dipropylamino)-1-methyl-tetralin-5-yl] ester

> <PUBCHEM_IUPAC_INCHI>
InChI=1S/C18H26F3NO3S/c1-4-11-22(12-5-2)16-10-9-15-14(13(16)3)7-6-8-17(15)25-26(23,24)18(19,20)21/h6-8,13,16H,4-5,9-12H2,1-3H3/t13-,16+/m0/s1

> <PUBCHEM_IUPAC_INCHIKEY>
MUVDWLPPMXZXRR-XJKSGUPXSA-N

> <PUBCHEM_XLOGP3_AA>
5.5

> <PUBCHEM_EXACT_MASS>
393.15854935

> <PUBCHEM_MOLECULAR_FORMULA>
C18H26F3NO3S

> <PUBCHEM_MOLECULAR_WEIGHT>
393.5

> <PUBCHEM_OPENEYE_CAN_SMILES>
CCCN(CCC)C1CCC2=C(C1C)C=CC=C2OS(=O)(=O)C(F)(F)F

> <PUBCHEM_OPENEYE_ISO_SMILES>
CCCN(CCC)[C@@H]1CCC2=C([C@@H]1C)C=CC=C2OS(=O)(=O)C(F)(F)F

> <PUBCHEM_CACTVS_TPSA>
55

> <PUBCHEM_MONOISOTOPIC_WEIGHT>
393.15854935

> <PUBCHEM_TOTAL_CHARGE>
0

> <PUBCHEM_HEAVY_ATOM_COUNT>
26

> <PUBCHEM_ATOM_DEF_STEREO_COUNT>
2

> <PUBCHEM_ATOM_UDEF_STEREO_COUNT>
0

> <PUBCHEM_BOND_DEF_STEREO_COUNT>
0

> <PUBCHEM_BOND_UDEF_STEREO_COUNT>
0

> <PUBCHEM_ISOTOPIC_ATOM_COUNT>
0

> <PUBCHEM_COMPONENT_COUNT>
1

> <PUBCHEM_CACTVS_TAUTO_COUNT>
-1

> <PUBCHEM_COORDINATE_TYPE>
1
5
255

> <PUBCHEM_BONDANNOTATIONS>
10  15  5
13  14  8
13  18  8
14  19  8
18  22  8
19  23  8
22  23  8
9  8  5

$$$$
