122183769
  -OEChem-09292322362D

 60 63  0     0  0  0  0  0  0999 V2000
   15.7619   -0.1690    0.0000 Cl  0  0  0  0  0  0  0  0  0  0  0  0
   13.7619   -0.1690    0.0000 O   0  0  0  0  0  0  0  0  0  0  0  0
    6.7619   -1.9010    0.0000 O   0  0  0  0  0  0  0  0  0  0  0  0
   10.7619    1.5630    0.0000 N   0  0  0  0  0  0  0  0  0  0  0  0
   12.7619    1.5630    0.0000 N   0  0  0  0  0  0  0  0  0  0  0  0
    6.7619   -0.1690    0.0000 N   0  0  0  0  0  0  0  0  0  0  0  0
    4.6783   -1.8398    0.0000 N   0  0  0  0  0  0  0  0  0  0  0  0
   11.2619    0.6970    0.0000 C   0  0  0  0  0  0  0  0  0  0  0  0
   11.2619    2.4291    0.0000 C   0  0  0  0  0  0  0  0  0  0  0  0
   12.2619    0.6970    0.0000 C   0  0  0  0  0  0  0  0  0  0  0  0
   12.2619    2.4291    0.0000 C   0  0  0  0  0  0  0  0  0  0  0  0
    9.7619    1.5630    0.0000 C   0  0  0  0  0  0  0  0  0  0  0  0
    9.2619    0.6970    0.0000 C   0  0  0  0  0  0  0  0  0  0  0  0
   13.7619    1.5630    0.0000 C   0  0  0  0  0  0  0  0  0  0  0  0
    8.2619    0.6970    0.0000 C   0  0  0  0  0  0  0  0  0  0  0  0
    7.7619   -0.1690    0.0000 C   0  0  0  0  0  0  0  0  0  0  0  0
   14.2619    0.6970    0.0000 C   0  0  0  0  0  0  0  0  0  0  0  0
   14.2619    2.4291    0.0000 C   0  0  0  0  0  0  0  0  0  0  0  0
   15.2619    0.6970    0.0000 C   0  0  0  0  0  0  0  0  0  0  0  0
   15.2619    2.4291    0.0000 C   0  0  0  0  0  0  0  0  0  0  0  0
   15.7619    1.5630    0.0000 C   0  0  0  0  0  0  0  0  0  0  0  0
    6.2619   -1.0350    0.0000 C   0  0  0  0  0  0  0  0  0  0  0  0
    5.2619   -1.0350    0.0000 C   0  0  0  0  0  0  0  0  0  0  0  0
    3.7320   -1.5350    0.0000 C   0  0  0  0  0  0  0  0  0  0  0  0
    3.7320   -0.5350    0.0000 C   0  0  0  0  0  0  0  0  0  0  0  0
    4.6783   -0.2303    0.0000 C   0  0  0  0  0  0  0  0  0  0  0  0
   14.2619   -1.0350    0.0000 C   0  0  0  0  0  0  0  0  0  0  0  0
    2.8660   -2.0350    0.0000 C   0  0  0  0  0  0  0  0  0  0  0  0
    2.8660   -0.0350    0.0000 C   0  0  0  0  0  0  0  0  0  0  0  0
    2.0000   -1.5350    0.0000 C   0  0  0  0  0  0  0  0  0  0  0  0
    2.0000   -0.5350    0.0000 C   0  0  0  0  0  0  0  0  0  0  0  0
   10.6793    0.4850    0.0000 H   0  0  0  0  0  0  0  0  0  0  0  0
   11.3695    0.0864    0.0000 H   0  0  0  0  0  0  0  0  0  0  0  0
   11.3695    3.0397    0.0000 H   0  0  0  0  0  0  0  0  0  0  0  0
   10.6793    2.6411    0.0000 H   0  0  0  0  0  0  0  0  0  0  0  0
   12.1542    0.0864    0.0000 H   0  0  0  0  0  0  0  0  0  0  0  0
   12.8445    0.4850    0.0000 H   0  0  0  0  0  0  0  0  0  0  0  0
   12.8445    2.6411    0.0000 H   0  0  0  0  0  0  0  0  0  0  0  0
   12.1542    3.0397    0.0000 H   0  0  0  0  0  0  0  0  0  0  0  0
    9.8695    2.1736    0.0000 H   0  0  0  0  0  0  0  0  0  0  0  0
    9.1793    1.7751    0.0000 H   0  0  0  0  0  0  0  0  0  0  0  0
    9.1542    0.0864    0.0000 H   0  0  0  0  0  0  0  0  0  0  0  0
    9.8445    0.4850    0.0000 H   0  0  0  0  0  0  0  0  0  0  0  0
    8.3695    1.3076    0.0000 H   0  0  0  0  0  0  0  0  0  0  0  0
    7.6793    0.9091    0.0000 H   0  0  0  0  0  0  0  0  0  0  0  0
    7.6542   -0.7796    0.0000 H   0  0  0  0  0  0  0  0  0  0  0  0
    8.3445   -0.3811    0.0000 H   0  0  0  0  0  0  0  0  0  0  0  0
   13.9519    2.9660    0.0000 H   0  0  0  0  0  0  0  0  0  0  0  0
    6.4519    0.3679    0.0000 H   0  0  0  0  0  0  0  0  0  0  0  0
   15.5719    2.9660    0.0000 H   0  0  0  0  0  0  0  0  0  0  0  0
   16.3819    1.5630    0.0000 H   0  0  0  0  0  0  0  0  0  0  0  0
    4.8709   -2.4291    0.0000 H   0  0  0  0  0  0  0  0  0  0  0  0
    4.8709    0.3590    0.0000 H   0  0  0  0  0  0  0  0  0  0  0  0
   13.7249   -1.3450    0.0000 H   0  0  0  0  0  0  0  0  0  0  0  0
   14.5719   -1.5720    0.0000 H   0  0  0  0  0  0  0  0  0  0  0  0
   14.7988   -0.7250    0.0000 H   0  0  0  0  0  0  0  0  0  0  0  0
    2.8660   -2.6550    0.0000 H   0  0  0  0  0  0  0  0  0  0  0  0
    2.8660    0.5850    0.0000 H   0  0  0  0  0  0  0  0  0  0  0  0
    1.4631   -1.8450    0.0000 H   0  0  0  0  0  0  0  0  0  0  0  0
    1.4631   -0.2250    0.0000 H   0  0  0  0  0  0  0  0  0  0  0  0
  1 19  1  0  0  0  0
  2 17  1  0  0  0  0
  2 27  1  0  0  0  0
  3 22  2  0  0  0  0
  4  8  1  0  0  0  0
  4  9  1  0  0  0  0
  4 12  1  0  0  0  0
  5 10  1  0  0  0  0
  5 11  1  0  0  0  0
  5 14  1  0  0  0  0
  6 16  1  0  0  0  0
  6 22  1  0  0  0  0
  6 49  1  0  0  0  0
  7 23  1  0  0  0  0
  7 24  1  0  0  0  0
  7 52  1  0  0  0  0
  8 10  1  0  0  0  0
  8 32  1  0  0  0  0
  8 33  1  0  0  0  0
  9 11  1  0  0  0  0
  9 34  1  0  0  0  0
  9 35  1  0  0  0  0
 10 36  1  0  0  0  0
 10 37  1  0  0  0  0
 11 38  1  0  0  0  0
 11 39  1  0  0  0  0
 12 13  1  0  0  0  0
 12 40  1  0  0  0  0
 12 41  1  0  0  0  0
 13 15  1  0  0  0  0
 13 42  1  0  0  0  0
 13 43  1  0  0  0  0
 14 17  2  0  0  0  0
 14 18  1  0  0  0  0
 15 16  1  0  0  0  0
 15 44  1  0  0  0  0
 15 45  1  0  0  0  0
 16 46  1  0  0  0  0
 16 47  1  0  0  0  0
 17 19  1  0  0  0  0
 18 20  2  0  0  0  0
 18 48  1  0  0  0  0
 19 21  2  0  0  0  0
 20 21  1  0  0  0  0
 20 50  1  0  0  0  0
 21 51  1  0  0  0  0
 22 23  1  0  0  0  0
 23 26  2  0  0  0  0
 24 25  1  0  0  0  0
 24 28  2  0  0  0  0
 25 26  1  0  0  0  0
 25 29  2  0  0  0  0
 26 53  1  0  0  0  0
 27 54  1  0  0  0  0
 27 55  1  0  0  0  0
 27 56  1  0  0  0  0
 28 30  1  0  0  0  0
 28 57  1  0  0  0  0
 29 31  1  0  0  0  0
 29 58  1  0  0  0  0
 30 31  2  0  0  0  0
 30 59  1  0  0  0  0
 31 60  1  0  0  0  0
M  END
> <PUBCHEM_COMPOUND_CID>
122183769

> <PUBCHEM_COMPOUND_CANONICALIZED>
1

> <PUBCHEM_CACTVS_COMPLEXITY>
572

> <PUBCHEM_CACTVS_HBOND_ACCEPTOR>
4

> <PUBCHEM_CACTVS_HBOND_DONOR>
2

> <PUBCHEM_CACTVS_ROTATABLE_BOND>
8

> <PUBCHEM_CACTVS_SUBSKEYS>
AAADceB7sAAEAAAAAAAAAAAAAAAAAWAAAAA8YIAAAAAAAFgB9AAAHgIQAAAADA7BniYyxvPJlACoAyVyVACCiCAnJ2AImaG9b9gOZvPFt7uVMShk1hHY6YeYyYCeAAAAAAICGAAAAAAABAQwAAAAAAAAAA==

> <PUBCHEM_IUPAC_OPENEYE_NAME>
N-[4-[4-(3-chloro-2-methoxy-phenyl)piperazin-1-yl]butyl]-1H-indole-2-carboxamide

> <PUBCHEM_IUPAC_CAS_NAME>
N-[4-[4-(3-chloro-2-methoxyphenyl)-1-piperazinyl]butyl]-1H-indole-2-carboxamide

> <PUBCHEM_IUPAC_NAME_MARKUP>
<I>N</I>-[4-[4-(3-chloro-2-methoxyphenyl)piperazin-1-yl]butyl]-1<I>H</I>-indole-2-carboxamide

> <PUBCHEM_IUPAC_NAME>
N-[4-[4-(3-chloro-2-methoxyphenyl)piperazin-1-yl]butyl]-1H-indole-2-carboxamide

> <PUBCHEM_IUPAC_SYSTEMATIC_NAME>
N-[4-[4-(3-chloranyl-2-methoxy-phenyl)piperazin-1-yl]butyl]-1H-indole-2-carboxamide

> <PUBCHEM_IUPAC_TRADITIONAL_NAME>
N-[4-[4-(3-chloro-2-methoxy-phenyl)piperazino]butyl]-1H-indole-2-carboxamide

> <PUBCHEM_IUPAC_INCHI>
InChI=1S/C24H29ClN4O2/c1-31-23-19(25)8-6-10-22(23)29-15-13-28(14-16-29)12-5-4-11-26-24(30)21-17-18-7-2-3-9-20(18)27-21/h2-3,6-10,17,27H,4-5,11-16H2,1H3,(H,26,30)

> <PUBCHEM_IUPAC_INCHIKEY>
MJTGBGFLMDUFKD-UHFFFAOYSA-N

> <PUBCHEM_XLOGP3_AA>
4.6

> <PUBCHEM_EXACT_MASS>
440.1979039

> <PUBCHEM_MOLECULAR_FORMULA>
C24H29ClN4O2

> <PUBCHEM_MOLECULAR_WEIGHT>
441.0

> <PUBCHEM_OPENEYE_CAN_SMILES>
COC1=C(C=CC=C1Cl)N2CCN(CC2)CCCCNC(=O)C3=CC4=CC=CC=C4N3

> <PUBCHEM_OPENEYE_ISO_SMILES>
COC1=C(C=CC=C1Cl)N2CCN(CC2)CCCCNC(=O)C3=CC4=CC=CC=C4N3

> <PUBCHEM_CACTVS_TPSA>
60.6

> <PUBCHEM_MONOISOTOPIC_WEIGHT>
440.1979039

> <PUBCHEM_TOTAL_CHARGE>
0

> <PUBCHEM_HEAVY_ATOM_COUNT>
31

> <PUBCHEM_ATOM_DEF_STEREO_COUNT>
0

> <PUBCHEM_ATOM_UDEF_STEREO_COUNT>
0

> <PUBCHEM_BOND_DEF_STEREO_COUNT>
0

> <PUBCHEM_BOND_UDEF_STEREO_COUNT>
0

> <PUBCHEM_ISOTOPIC_ATOM_COUNT>
0

> <PUBCHEM_COMPONENT_COUNT>
1

> <PUBCHEM_CACTVS_TAUTO_COUNT>
-1

> <PUBCHEM_COORDINATE_TYPE>
1
5
255

> <PUBCHEM_BONDANNOTATIONS>
14  17  8
14  18  8
17  19  8
18  20  8
19  21  8
20  21  8
23  26  8
24  25  8
24  28  8
25  26  8
25  29  8
28  30  8
29  31  8
30  31  8
7  23  8
7  24  8

$$$$
