44341163
  -OEChem-09292322082D

 59 60  0     0  0  0  0  0  0999 V2000
    7.9409    6.6200    0.0000 O   0  0  0  0  0  0  0  0  0  0  0  0
   12.2711    6.1200    0.0000 O   0  0  0  0  0  0  0  0  0  0  0  0
    8.8070    5.1200    0.0000 O   0  0  0  0  0  0  0  0  0  0  0  0
   11.4050    7.6200    0.0000 O   0  0  0  0  0  0  0  0  0  0  0  0
    3.1350    3.6200    0.0000 N   0  0  0  0  0  0  0  0  0  0  0  0
    3.1350    6.6200    0.0000 N   0  0  0  0  0  0  0  0  0  0  0  0
    3.1350    5.6200    0.0000 C   0  0  0  0  0  0  0  0  0  0  0  0
    2.2690    5.1200    0.0000 C   0  0  0  0  0  0  0  0  0  0  0  0
    4.0010    5.1200    0.0000 C   0  0  0  0  0  0  0  0  0  0  0  0
    2.2690    4.1200    0.0000 C   0  0  0  0  0  0  0  0  0  0  0  0
    4.0010    4.1200    0.0000 C   0  0  0  0  0  0  0  0  0  0  0  0
    3.1350    2.6200    0.0000 C   0  0  0  0  0  0  0  0  0  0  0  0
    2.2690    2.1200    0.0000 C   0  0  0  0  0  0  0  0  0  0  0  0
    4.0010    7.1200    0.0000 C   0  0  0  0  0  0  0  0  0  0  0  0
    1.4030    2.6200    0.0000 C   0  0  0  0  0  0  0  0  0  0  0  0
    2.2690    1.1200    0.0000 C   0  0  0  0  0  0  0  0  0  0  0  0
    4.0010    8.1200    0.0000 C   0  0  0  0  0  0  0  0  0  0  0  0
    0.5369    2.1200    0.0000 C   0  0  0  0  0  0  0  0  0  0  0  0
    1.4030    0.6200    0.0000 C   0  0  0  0  0  0  0  0  0  0  0  0
    0.5369    1.1200    0.0000 C   0  0  0  0  0  0  0  0  0  0  0  0
    4.0010    9.1200    0.0000 C   0  0  0  0  0  0  0  0  0  0  0  0
    4.0010   10.1200    0.0000 C   0  0  0  0  0  0  0  0  0  0  0  0
    4.8671   10.6200    0.0000 C   0  0  0  0  0  0  0  0  0  0  0  0
    3.1350   10.6200    0.0000 C   0  0  0  0  0  0  0  0  0  0  0  0
    4.8671   11.6200    0.0000 C   0  0  0  0  0  0  0  0  0  0  0  0
    3.1350   11.6200    0.0000 C   0  0  0  0  0  0  0  0  0  0  0  0
    4.0010   12.1200    0.0000 C   0  0  0  0  0  0  0  0  0  0  0  0
    9.6730    6.6200    0.0000 C   0  0  0  0  0  0  0  0  0  0  0  0
   10.5390    6.1200    0.0000 C   0  0  0  0  0  0  0  0  0  0  0  0
    8.8070    6.1200    0.0000 C   0  0  0  0  0  0  0  0  0  0  0  0
   11.4050    6.6200    0.0000 C   0  0  0  0  0  0  0  0  0  0  0  0
    3.6720    5.9300    0.0000 H   0  0  0  0  0  0  0  0  0  0  0  0
    2.0569    5.7026    0.0000 H   0  0  0  0  0  0  0  0  0  0  0  0
    1.6584    5.0123    0.0000 H   0  0  0  0  0  0  0  0  0  0  0  0
    4.6116    5.0123    0.0000 H   0  0  0  0  0  0  0  0  0  0  0  0
    4.2131    5.7026    0.0000 H   0  0  0  0  0  0  0  0  0  0  0  0
    1.6584    4.2277    0.0000 H   0  0  0  0  0  0  0  0  0  0  0  0
    2.0569    3.5374    0.0000 H   0  0  0  0  0  0  0  0  0  0  0  0
    4.2131    3.5374    0.0000 H   0  0  0  0  0  0  0  0  0  0  0  0
    4.6116    4.2277    0.0000 H   0  0  0  0  0  0  0  0  0  0  0  0
    3.3471    2.0374    0.0000 H   0  0  0  0  0  0  0  0  0  0  0  0
    3.7456    2.7277    0.0000 H   0  0  0  0  0  0  0  0  0  0  0  0
    2.5981    6.9300    0.0000 H   0  0  0  0  0  0  0  0  0  0  0  0
    4.2131    6.5374    0.0000 H   0  0  0  0  0  0  0  0  0  0  0  0
    4.6116    7.2277    0.0000 H   0  0  0  0  0  0  0  0  0  0  0  0
    1.4030    3.2400    0.0000 H   0  0  0  0  0  0  0  0  0  0  0  0
    2.8059    0.8100    0.0000 H   0  0  0  0  0  0  0  0  0  0  0  0
    0.0000    2.4300    0.0000 H   0  0  0  0  0  0  0  0  0  0  0  0
    1.4030    0.0000    0.0000 H   0  0  0  0  0  0  0  0  0  0  0  0
    0.0000    0.8100    0.0000 H   0  0  0  0  0  0  0  0  0  0  0  0
    5.4040   10.3100    0.0000 H   0  0  0  0  0  0  0  0  0  0  0  0
    2.5981   10.3100    0.0000 H   0  0  0  0  0  0  0  0  0  0  0  0
    5.4040   11.9300    0.0000 H   0  0  0  0  0  0  0  0  0  0  0  0
    2.5981   11.9300    0.0000 H   0  0  0  0  0  0  0  0  0  0  0  0
    4.0010   12.7400    0.0000 H   0  0  0  0  0  0  0  0  0  0  0  0
    9.6730    7.2400    0.0000 H   0  0  0  0  0  0  0  0  0  0  0  0
   10.5390    5.5000    0.0000 H   0  0  0  0  0  0  0  0  0  0  0  0
    7.4040    6.3100    0.0000 H   0  0  0  0  0  0  0  0  0  0  0  0
   12.8080    6.4300    0.0000 H   0  0  0  0  0  0  0  0  0  0  0  0
  1 30  1  0  0  0  0
  1 58  1  0  0  0  0
  2 31  1  0  0  0  0
  2 59  1  0  0  0  0
  3 30  2  0  0  0  0
  4 31  2  0  0  0  0
  5 10  1  0  0  0  0
  5 11  1  0  0  0  0
  5 12  1  0  0  0  0
  6  7  1  0  0  0  0
  6 14  1  0  0  0  0
  6 43  1  0  0  0  0
  7  8  1  0  0  0  0
  7  9  1  0  0  0  0
  7 32  1  0  0  0  0
  8 10  1  0  0  0  0
  8 33  1  0  0  0  0
  8 34  1  0  0  0  0
  9 11  1  0  0  0  0
  9 35  1  0  0  0  0
  9 36  1  0  0  0  0
 10 37  1  0  0  0  0
 10 38  1  0  0  0  0
 11 39  1  0  0  0  0
 11 40  1  0  0  0  0
 12 13  1  0  0  0  0
 12 41  1  0  0  0  0
 12 42  1  0  0  0  0
 13 15  2  0  0  0  0
 13 16  1  0  0  0  0
 14 17  1  0  0  0  0
 14 44  1  0  0  0  0
 14 45  1  0  0  0  0
 15 18  1  0  0  0  0
 15 46  1  0  0  0  0
 16 19  2  0  0  0  0
 16 47  1  0  0  0  0
 17 21  3  0  0  0  0
 18 20  2  0  0  0  0
 18 48  1  0  0  0  0
 19 20  1  0  0  0  0
 19 49  1  0  0  0  0
 20 50  1  0  0  0  0
 21 22  1  0  0  0  0
 22 23  2  0  0  0  0
 22 24  1  0  0  0  0
 23 25  1  0  0  0  0
 23 51  1  0  0  0  0
 24 26  2  0  0  0  0
 24 52  1  0  0  0  0
 25 27  2  0  0  0  0
 25 53  1  0  0  0  0
 26 27  1  0  0  0  0
 26 54  1  0  0  0  0
 27 55  1  0  0  0  0
 28 29  2  0  0  0  0
 28 30  1  0  0  0  0
 28 56  1  0  0  0  0
 29 31  1  0  0  0  0
 29 57  1  0  0  0  0
M  END
> <PUBCHEM_COMPOUND_CID>
44341163

> <PUBCHEM_COMPOUND_CANONICALIZED>
1

> <PUBCHEM_CACTVS_COMPLEXITY>
504

> <PUBCHEM_CACTVS_HBOND_ACCEPTOR>
6

> <PUBCHEM_CACTVS_HBOND_DONOR>
3

> <PUBCHEM_CACTVS_ROTATABLE_BOND>
7

> <PUBCHEM_CACTVS_SUBSKEYS>
AAADceB7OAAAAAAAAAAAAAAAAAAAAAAAAAA8YIAAAAAAAAABQAAAHgAQCAAADCjBmAQwCIPAAgDIEiDSCAiCAAAgAAAIiIAIBMgIJCKA0RGEMAhgkACImYcQgAAOAAAAAAAAAAAAAAAAAAAAAAAAAAAAAA==

> <PUBCHEM_IUPAC_OPENEYE_NAME>
1-benzyl-N-(3-phenylprop-2-ynyl)piperidin-4-amine;fumaric acid

> <PUBCHEM_IUPAC_CAS_NAME>
(E)-2-butenedioic acid;1-(phenylmethyl)-N-(3-phenylprop-2-ynyl)-4-piperidinamine

> <PUBCHEM_IUPAC_NAME_MARKUP>
1-benzyl-<I>N</I>-(3-phenylprop-2-ynyl)piperidin-4-amine;(<I>E</I>)-but-2-enedioic acid

> <PUBCHEM_IUPAC_NAME>
1-benzyl-N-(3-phenylprop-2-ynyl)piperidin-4-amine;(E)-but-2-enedioic acid

> <PUBCHEM_IUPAC_SYSTEMATIC_NAME>
(E)-but-2-enedioic acid;1-(phenylmethyl)-N-(3-phenylprop-2-ynyl)piperidin-4-amine

> <PUBCHEM_IUPAC_TRADITIONAL_NAME>
(1-benzyl-4-piperidyl)-(3-phenylprop-2-ynyl)amine;fumaric acid

> <PUBCHEM_IUPAC_INCHI>
InChI=1S/C21H24N2.C4H4O4/c1-3-8-19(9-4-1)12-7-15-22-21-13-16-23(17-14-21)18-20-10-5-2-6-11-20;5-3(6)1-2-4(7)8/h1-6,8-11,21-22H,13-18H2;1-2H,(H,5,6)(H,7,8)/b;2-1+

> <PUBCHEM_IUPAC_INCHIKEY>
RPKMLNVDNHGOBL-WLHGVMLRSA-N

> <PUBCHEM_EXACT_MASS>
420.20490738

> <PUBCHEM_MOLECULAR_FORMULA>
C25H28N2O4

> <PUBCHEM_MOLECULAR_WEIGHT>
420.5

> <PUBCHEM_OPENEYE_CAN_SMILES>
C1CN(CCC1NCC#CC2=CC=CC=C2)CC3=CC=CC=C3.C(=CC(=O)O)C(=O)O

> <PUBCHEM_OPENEYE_ISO_SMILES>
C1CN(CCC1NCC#CC2=CC=CC=C2)CC3=CC=CC=C3.C(=C/C(=O)O)\C(=O)O

> <PUBCHEM_CACTVS_TPSA>
89.9

> <PUBCHEM_MONOISOTOPIC_WEIGHT>
420.20490738

> <PUBCHEM_TOTAL_CHARGE>
0

> <PUBCHEM_HEAVY_ATOM_COUNT>
31

> <PUBCHEM_ATOM_DEF_STEREO_COUNT>
0

> <PUBCHEM_ATOM_UDEF_STEREO_COUNT>
0

> <PUBCHEM_BOND_DEF_STEREO_COUNT>
1

> <PUBCHEM_BOND_UDEF_STEREO_COUNT>
0

> <PUBCHEM_ISOTOPIC_ATOM_COUNT>
0

> <PUBCHEM_COMPONENT_COUNT>
2

> <PUBCHEM_CACTVS_TAUTO_COUNT>
-1

> <PUBCHEM_COORDINATE_TYPE>
1
5
255

> <PUBCHEM_BONDANNOTATIONS>
13  15  8
13  16  8
15  18  8
16  19  8
18  20  8
19  20  8
22  23  8
22  24  8
23  25  8
24  26  8
25  27  8
26  27  8

$$$$
