11349297
  -OEChem-09292322472D

 47 50  0     0  0  0  0  0  0999 V2000
    4.5981   -1.9470    0.0000 Cl  0  0  0  0  0  0  0  0  0  0  0  0
    8.9282    1.5530    0.0000 O   0  0  0  0  0  0  0  0  0  0  0  0
   14.0561    0.5530    0.0000 O   0  0  0  0  0  0  0  0  0  0  0  0
    6.3301    1.0530    0.0000 N   0  0  0  0  0  0  0  0  0  0  0  0
    4.5981    0.0530    0.0000 N   0  0  0  0  0  0  0  0  0  0  0  0
   12.4725    1.3577    0.0000 N   0  0  0  0  0  0  0  0  0  0  0  0
   12.4725   -0.2518    0.0000 N   0  0  0  0  0  0  0  0  0  0  0  0
    5.4641    1.5530    0.0000 C   0  0  0  0  0  0  0  0  0  0  0  0
    6.3301    0.0530    0.0000 C   0  0  0  0  0  0  0  0  0  0  0  0
    4.5981    1.0530    0.0000 C   0  0  0  0  0  0  0  0  0  0  0  0
    5.4641   -0.4470    0.0000 C   0  0  0  0  0  0  0  0  0  0  0  0
    7.1962    1.5530    0.0000 C   0  0  0  0  0  0  0  0  0  0  0  0
    3.7320   -0.4470    0.0000 C   0  0  0  0  0  0  0  0  0  0  0  0
    8.0622    1.0530    0.0000 C   0  0  0  0  0  0  0  0  0  0  0  0
    3.7320   -1.4470    0.0000 C   0  0  0  0  0  0  0  0  0  0  0  0
    2.8660    0.0530    0.0000 C   0  0  0  0  0  0  0  0  0  0  0  0
    9.7942    1.0530    0.0000 C   0  0  0  0  0  0  0  0  0  0  0  0
    2.8660   -1.9470    0.0000 C   0  0  0  0  0  0  0  0  0  0  0  0
    2.0000   -0.4470    0.0000 C   0  0  0  0  0  0  0  0  0  0  0  0
   11.5263    1.0530    0.0000 C   0  0  0  0  0  0  0  0  0  0  0  0
   10.6603    1.5530    0.0000 C   0  0  0  0  0  0  0  0  0  0  0  0
    2.0000   -1.4470    0.0000 C   0  0  0  0  0  0  0  0  0  0  0  0
   11.5263    0.0530    0.0000 C   0  0  0  0  0  0  0  0  0  0  0  0
    9.7942    0.0530    0.0000 C   0  0  0  0  0  0  0  0  0  0  0  0
   10.6603   -0.4470    0.0000 C   0  0  0  0  0  0  0  0  0  0  0  0
   13.0561    0.5530    0.0000 C   0  0  0  0  0  0  0  0  0  0  0  0
    5.8626    2.0279    0.0000 H   0  0  0  0  0  0  0  0  0  0  0  0
    5.0656    2.0279    0.0000 H   0  0  0  0  0  0  0  0  0  0  0  0
    6.5422   -0.5296    0.0000 H   0  0  0  0  0  0  0  0  0  0  0  0
    6.9407    0.1606    0.0000 H   0  0  0  0  0  0  0  0  0  0  0  0
    4.3860    1.6356    0.0000 H   0  0  0  0  0  0  0  0  0  0  0  0
    3.9875    0.9453    0.0000 H   0  0  0  0  0  0  0  0  0  0  0  0
    5.0656   -0.9220    0.0000 H   0  0  0  0  0  0  0  0  0  0  0  0
    5.8626   -0.9220    0.0000 H   0  0  0  0  0  0  0  0  0  0  0  0
    7.5947    2.0279    0.0000 H   0  0  0  0  0  0  0  0  0  0  0  0
    6.7976    2.0279    0.0000 H   0  0  0  0  0  0  0  0  0  0  0  0
    7.6636    0.5780    0.0000 H   0  0  0  0  0  0  0  0  0  0  0  0
    8.4607    0.5780    0.0000 H   0  0  0  0  0  0  0  0  0  0  0  0
    2.8660    0.6730    0.0000 H   0  0  0  0  0  0  0  0  0  0  0  0
    2.8660   -2.5670    0.0000 H   0  0  0  0  0  0  0  0  0  0  0  0
    1.4631   -0.1370    0.0000 H   0  0  0  0  0  0  0  0  0  0  0  0
   10.6603    2.1730    0.0000 H   0  0  0  0  0  0  0  0  0  0  0  0
    1.4631   -1.7570    0.0000 H   0  0  0  0  0  0  0  0  0  0  0  0
    9.2573   -0.2570    0.0000 H   0  0  0  0  0  0  0  0  0  0  0  0
   10.6603   -1.0670    0.0000 H   0  0  0  0  0  0  0  0  0  0  0  0
   12.6651    1.9470    0.0000 H   0  0  0  0  0  0  0  0  0  0  0  0
   12.6651   -0.8411    0.0000 H   0  0  0  0  0  0  0  0  0  0  0  0
  1 15  1  0  0  0  0
  2 14  1  0  0  0  0
  2 17  1  0  0  0  0
  3 26  2  0  0  0  0
  4  8  1  0  0  0  0
  4  9  1  0  0  0  0
  4 12  1  0  0  0  0
  5 10  1  0  0  0  0
  5 11  1  0  0  0  0
  5 13  1  0  0  0  0
  6 20  1  0  0  0  0
  6 26  1  0  0  0  0
  6 46  1  0  0  0  0
  7 23  1  0  0  0  0
  7 26  1  0  0  0  0
  7 47  1  0  0  0  0
  8 10  1  0  0  0  0
  8 27  1  0  0  0  0
  8 28  1  0  0  0  0
  9 11  1  0  0  0  0
  9 29  1  0  0  0  0
  9 30  1  0  0  0  0
 10 31  1  0  0  0  0
 10 32  1  0  0  0  0
 11 33  1  0  0  0  0
 11 34  1  0  0  0  0
 12 14  1  0  0  0  0
 12 35  1  0  0  0  0
 12 36  1  0  0  0  0
 13 15  1  0  0  0  0
 13 16  2  0  0  0  0
 14 37  1  0  0  0  0
 14 38  1  0  0  0  0
 15 18  2  0  0  0  0
 16 19  1  0  0  0  0
 16 39  1  0  0  0  0
 17 21  2  0  0  0  0
 17 24  1  0  0  0  0
 18 22  1  0  0  0  0
 18 40  1  0  0  0  0
 19 22  2  0  0  0  0
 19 41  1  0  0  0  0
 20 21  1  0  0  0  0
 20 23  2  0  0  0  0
 21 42  1  0  0  0  0
 22 43  1  0  0  0  0
 23 25  1  0  0  0  0
 24 25  2  0  0  0  0
 24 44  1  0  0  0  0
 25 45  1  0  0  0  0
M  END
> <PUBCHEM_COMPOUND_CID>
11349297

> <PUBCHEM_COMPOUND_CANONICALIZED>
1

> <PUBCHEM_CACTVS_COMPLEXITY>
486

> <PUBCHEM_CACTVS_HBOND_ACCEPTOR>
4

> <PUBCHEM_CACTVS_HBOND_DONOR>
2

> <PUBCHEM_CACTVS_ROTATABLE_BOND>
5

> <PUBCHEM_CACTVS_SUBSKEYS>
AAADceB7sAAEAAAAAAAAAAAAAAAAAWAAAAA8YIAAAAAAAFgBQAAAHgIQAAAACA7hkCYxxoPABACIACRCUACCCAAhJwAIiAAOfoiOZiLFs5vXOCju1BvY6CewUAMAAEAAAgAAADAAgAAEAAAAYAAAAAAAAA==

> <PUBCHEM_IUPAC_OPENEYE_NAME>
5-[2-[4-(2-chlorophenyl)piperazin-1-yl]ethoxy]-1,3-dihydrobenzimidazol-2-one

> <PUBCHEM_IUPAC_CAS_NAME>
5-[2-[4-(2-chlorophenyl)-1-piperazinyl]ethoxy]-1,3-dihydrobenzimidazol-2-one

> <PUBCHEM_IUPAC_NAME_MARKUP>
5-[2-[4-(2-chlorophenyl)piperazin-1-yl]ethoxy]-1,3-dihydrobenzimidazol-2-one

> <PUBCHEM_IUPAC_NAME>
5-[2-[4-(2-chlorophenyl)piperazin-1-yl]ethoxy]-1,3-dihydrobenzimidazol-2-one

> <PUBCHEM_IUPAC_SYSTEMATIC_NAME>
5-[2-[4-(2-chlorophenyl)piperazin-1-yl]ethoxy]-1,3-dihydrobenzimidazol-2-one

> <PUBCHEM_IUPAC_TRADITIONAL_NAME>
5-[2-[4-(2-chlorophenyl)piperazino]ethoxy]-1,3-dihydrobenzimidazol-2-one

> <PUBCHEM_IUPAC_INCHI>
InChI=1S/C19H21ClN4O2/c20-15-3-1-2-4-18(15)24-9-7-23(8-10-24)11-12-26-14-5-6-16-17(13-14)22-19(25)21-16/h1-6,13H,7-12H2,(H2,21,22,25)

> <PUBCHEM_IUPAC_INCHIKEY>
OOFZTDDZWQTLSH-UHFFFAOYSA-N

> <PUBCHEM_XLOGP3_AA>
2.8

> <PUBCHEM_EXACT_MASS>
372.1353036

> <PUBCHEM_MOLECULAR_FORMULA>
C19H21ClN4O2

> <PUBCHEM_MOLECULAR_WEIGHT>
372.8

> <PUBCHEM_OPENEYE_CAN_SMILES>
C1CN(CCN1CCOC2=CC3=C(C=C2)NC(=O)N3)C4=CC=CC=C4Cl

> <PUBCHEM_OPENEYE_ISO_SMILES>
C1CN(CCN1CCOC2=CC3=C(C=C2)NC(=O)N3)C4=CC=CC=C4Cl

> <PUBCHEM_CACTVS_TPSA>
56.8

> <PUBCHEM_MONOISOTOPIC_WEIGHT>
372.1353036

> <PUBCHEM_TOTAL_CHARGE>
0

> <PUBCHEM_HEAVY_ATOM_COUNT>
26

> <PUBCHEM_ATOM_DEF_STEREO_COUNT>
0

> <PUBCHEM_ATOM_UDEF_STEREO_COUNT>
0

> <PUBCHEM_BOND_DEF_STEREO_COUNT>
0

> <PUBCHEM_BOND_UDEF_STEREO_COUNT>
0

> <PUBCHEM_ISOTOPIC_ATOM_COUNT>
0

> <PUBCHEM_COMPONENT_COUNT>
1

> <PUBCHEM_CACTVS_TAUTO_COUNT>
-1

> <PUBCHEM_COORDINATE_TYPE>
1
5
255

> <PUBCHEM_BONDANNOTATIONS>
13  15  8
13  16  8
15  18  8
16  19  8
17  21  8
17  24  8
18  22  8
19  22  8
20  21  8
20  23  8
23  25  8
24  25  8
6  20  8
6  26  8
7  23  8
7  26  8

$$$$
