44378034
  -OEChem-09292322192D

 55 59  0     1  0  0  0  0  0999 V2000
    5.5887   -5.8566    0.0000 S   0  0  0  0  0  0  0  0  0  0  0  0
    2.0000    5.8712    0.0000 F   0  0  0  0  0  0  0  0  0  0  0  0
    5.0133    2.4187    0.0000 O   0  0  0  0  0  0  0  0  0  0  0  0
    5.3565   -3.8003    0.0000 N   0  0  3  0  0  0  0  0  0  0  0  0
    4.0267   -1.0492    0.0000 N   0  0  3  0  0  0  0  0  0  0  0  0
    5.0066    4.1507    0.0000 N   0  0  0  0  0  0  0  0  0  0  0  0
    5.0475   -2.8492    0.0000 C   0  0  1  0  0  0  0  0  0  0  0  0
    4.0475   -2.8492    0.0000 C   0  0  2  0  0  0  0  0  0  0  0  0
    5.5822   -1.9553    0.0000 C   0  0  0  0  0  0  0  0  0  0  0  0
    3.5128   -1.9553    0.0000 C   0  0  0  0  0  0  0  0  0  0  0  0
    3.7385   -3.8003    0.0000 C   0  0  0  0  0  0  0  0  0  0  0  0
    4.5475   -4.3881    0.0000 C   0  0  0  0  0  0  0  0  0  0  0  0
    5.0683   -1.0492    0.0000 C   0  0  0  0  0  0  0  0  0  0  0  0
    6.3145   -4.2092    0.0000 C   0  0  0  0  0  0  0  0  0  0  0  0
    4.6404   -5.4256    0.0000 C   0  0  0  0  0  0  0  0  0  0  0  0
    3.5234   -0.1851    0.0000 C   0  0  0  0  0  0  0  0  0  0  0  0
    2.8822   -4.3313    0.0000 C   0  0  0  0  0  0  0  0  0  0  0  0
    6.4314   -5.2443    0.0000 C   0  0  0  0  0  0  0  0  0  0  0  0
    4.0200    0.6828    0.0000 C   0  0  0  0  0  0  0  0  0  0  0  0
    3.7368   -5.8712    0.0000 C   0  0  0  0  0  0  0  0  0  0  0  0
    2.8814   -5.3388    0.0000 C   0  0  0  0  0  0  0  0  0  0  0  0
    3.5167    1.5469    0.0000 C   0  0  0  0  0  0  0  0  0  0  0  0
    4.0133    2.4148    0.0000 C   0  0  0  0  0  0  0  0  0  0  0  0
    3.5100    3.2789    0.0000 C   0  0  0  0  0  0  0  0  0  0  0  0
    4.0067    4.1469    0.0000 C   0  0  0  0  0  0  0  0  0  0  0  0
    2.5100    3.2751    0.0000 C   0  0  0  0  0  0  0  0  0  0  0  0
    3.5033    5.0110    0.0000 C   0  0  0  0  0  0  0  0  0  0  0  0
    2.0067    4.1392    0.0000 C   0  0  0  0  0  0  0  0  0  0  0  0
    2.5033    5.0071    0.0000 C   0  0  0  0  0  0  0  0  0  0  0  0
    5.8921   -2.9446    0.0000 H   0  0  0  0  0  0  0  0  0  0  0  0
    3.2029   -2.9446    0.0000 H   0  0  0  0  0  0  0  0  0  0  0  0
    6.0520   -2.3599    0.0000 H   0  0  0  0  0  0  0  0  0  0  0  0
    6.0612   -1.5617    0.0000 H   0  0  0  0  0  0  0  0  0  0  0  0
    3.0338   -1.5617    0.0000 H   0  0  0  0  0  0  0  0  0  0  0  0
    3.0431   -2.3599    0.0000 H   0  0  0  0  0  0  0  0  0  0  0  0
    5.6520   -0.8402    0.0000 H   0  0  0  0  0  0  0  0  0  0  0  0
    4.9622   -0.4384    0.0000 H   0  0  0  0  0  0  0  0  0  0  0  0
    6.9334   -4.2461    0.0000 H   0  0  0  0  0  0  0  0  0  0  0  0
    6.4568   -3.6058    0.0000 H   0  0  0  0  0  0  0  0  0  0  0  0
    3.0469    0.2116    0.0000 H   0  0  0  0  0  0  0  0  0  0  0  0
    3.0500   -0.5855    0.0000 H   0  0  0  0  0  0  0  0  0  0  0  0
    2.3406   -4.0295    0.0000 H   0  0  0  0  0  0  0  0  0  0  0  0
    6.7046   -5.8008    0.0000 H   0  0  0  0  0  0  0  0  0  0  0  0
    7.0265   -5.0703    0.0000 H   0  0  0  0  0  0  0  0  0  0  0  0
    4.4965    0.2861    0.0000 H   0  0  0  0  0  0  0  0  0  0  0  0
    4.4934    1.0832    0.0000 H   0  0  0  0  0  0  0  0  0  0  0  0
    3.7062   -6.4905    0.0000 H   0  0  0  0  0  0  0  0  0  0  0  0
    2.3392   -5.6397    0.0000 H   0  0  0  0  0  0  0  0  0  0  0  0
    3.0402    1.9436    0.0000 H   0  0  0  0  0  0  0  0  0  0  0  0
    3.0433    1.1466    0.0000 H   0  0  0  0  0  0  0  0  0  0  0  0
    2.2021    2.7370    0.0000 H   0  0  0  0  0  0  0  0  0  0  0  0
    3.8112    5.5491    0.0000 H   0  0  0  0  0  0  0  0  0  0  0  0
    1.3867    4.1368    0.0000 H   0  0  0  0  0  0  0  0  0  0  0  0
    5.3146    4.6889    0.0000 H   0  0  0  0  0  0  0  0  0  0  0  0
    5.3187    3.6150    0.0000 H   0  0  0  0  0  0  0  0  0  0  0  0
  1 15  1  0  0  0  0
  1 18  1  0  0  0  0
  2 29  1  0  0  0  0
  3 23  2  0  0  0  0
  4  7  1  0  0  0  0
  4 12  1  0  0  0  0
  4 14  1  0  0  0  0
  5 10  1  0  0  0  0
  5 13  1  0  0  0  0
  5 16  1  0  0  0  0
  6 25  1  0  0  0  0
  6 54  1  0  0  0  0
  6 55  1  0  0  0  0
  7  8  1  0  0  0  0
  7  9  1  0  0  0  0
  7 30  1  6  0  0  0
  8 10  1  0  0  0  0
  8 11  1  0  0  0  0
  8 31  1  6  0  0  0
  9 13  1  0  0  0  0
  9 32  1  0  0  0  0
  9 33  1  0  0  0  0
 10 34  1  0  0  0  0
 10 35  1  0  0  0  0
 11 12  2  0  0  0  0
 11 17  1  0  0  0  0
 12 15  1  0  0  0  0
 13 36  1  0  0  0  0
 13 37  1  0  0  0  0
 14 18  1  0  0  0  0
 14 38  1  0  0  0  0
 14 39  1  0  0  0  0
 15 20  2  0  0  0  0
 16 19  1  0  0  0  0
 16 40  1  0  0  0  0
 16 41  1  0  0  0  0
 17 21  2  0  0  0  0
 17 42  1  0  0  0  0
 18 43  1  0  0  0  0
 18 44  1  0  0  0  0
 19 22  1  0  0  0  0
 19 45  1  0  0  0  0
 19 46  1  0  0  0  0
 20 21  1  0  0  0  0
 20 47  1  0  0  0  0
 21 48  1  0  0  0  0
 22 23  1  0  0  0  0
 22 49  1  0  0  0  0
 22 50  1  0  0  0  0
 23 24  1  0  0  0  0
 24 25  2  0  0  0  0
 24 26  1  0  0  0  0
 25 27  1  0  0  0  0
 26 28  2  0  0  0  0
 26 51  1  0  0  0  0
 27 29  2  0  0  0  0
 27 52  1  0  0  0  0
 28 29  1  0  0  0  0
 28 53  1  0  0  0  0
M  END
> <PUBCHEM_COMPOUND_CID>
44378034

> <PUBCHEM_COMPOUND_CANONICALIZED>
1

> <PUBCHEM_CACTVS_COMPLEXITY>
607

> <PUBCHEM_CACTVS_HBOND_ACCEPTOR>
6

> <PUBCHEM_CACTVS_HBOND_DONOR>
1

> <PUBCHEM_CACTVS_ROTATABLE_BOND>
5

> <PUBCHEM_CACTVS_SUBSKEYS>
AAADceB7IQBAAAAAAAAAAAAAAAAAAWAAAAA8eIEAAAAAAFixQAAAHwQQAAAADSzF2AywwYNAAAiIAqRSQACCAAAlChAIiB0IZMgIIDrg1ZGEIYhgkADoyccciMCOgAAAgAACAQAAAAEAAAQCAAAAAAAAAA==

> <PUBCHEM_IUPAC_OPENEYE_NAME>
1-(2-amino-4-fluoro-phenyl)-4-[(10S,15R)-4-thia-1,12-diazatetracyclo[7.6.1.05,16.010,15]hexadeca-5,7,9(16)-trien-12-yl]butan-1-one

> <PUBCHEM_IUPAC_CAS_NAME>
1-(2-amino-4-fluorophenyl)-4-[(10S,15R)-4-thia-1,12-diazatetracyclo[7.6.1.05,16.010,15]hexadeca-5,7,9(16)-trien-12-yl]-1-butanone

> <PUBCHEM_IUPAC_NAME_MARKUP>
1-(2-amino-4-fluorophenyl)-4-[(10<I>S</I>,15<I>R</I>)-4-thia-1,12-diazatetracyclo[7.6.1.0<SUP>5,16</SUP>.0<SUP>10,15</SUP>]hexadeca-5,7,9(16)-trien-12-yl]butan-1-one

> <PUBCHEM_IUPAC_NAME>
1-(2-amino-4-fluorophenyl)-4-[(10S,15R)-4-thia-1,12-diazatetracyclo[7.6.1.05,16.010,15]hexadeca-5,7,9(16)-trien-12-yl]butan-1-one

> <PUBCHEM_IUPAC_SYSTEMATIC_NAME>
1-(2-azanyl-4-fluoranyl-phenyl)-4-[(10S,15R)-4-thia-1,12-diazatetracyclo[7.6.1.05,16.010,15]hexadeca-5,7,9(16)-trien-12-yl]butan-1-one

> <PUBCHEM_IUPAC_TRADITIONAL_NAME>
1-(2-amino-4-fluoro-phenyl)-4-[(10S,15R)-4-thia-1,12-diazatetracyclo[7.6.1.05,16.010,15]hexadeca-5,7,9(16)-trien-12-yl]butan-1-one

> <PUBCHEM_IUPAC_INCHI>
InChI=1S/C23H26FN3OS/c24-15-6-7-17(19(25)13-15)21(28)4-2-9-26-10-8-20-18(14-26)16-3-1-5-22-23(16)27(20)11-12-29-22/h1,3,5-7,13,18,20H,2,4,8-12,14,25H2/t18-,20-/m1/s1

> <PUBCHEM_IUPAC_INCHIKEY>
RFRAMVDLVRFQPK-UYAOXDASSA-N

> <PUBCHEM_XLOGP3_AA>
4

> <PUBCHEM_EXACT_MASS>
411.17806180

> <PUBCHEM_MOLECULAR_FORMULA>
C23H26FN3OS

> <PUBCHEM_MOLECULAR_WEIGHT>
411.5

> <PUBCHEM_OPENEYE_CAN_SMILES>
C1CN(CC2C1N3CCSC4=CC=CC2=C43)CCCC(=O)C5=C(C=C(C=C5)F)N

> <PUBCHEM_OPENEYE_ISO_SMILES>
C1CN(C[C@H]2[C@@H]1N3CCSC4=CC=CC2=C43)CCCC(=O)C5=C(C=C(C=C5)F)N

> <PUBCHEM_CACTVS_TPSA>
74.9

> <PUBCHEM_MONOISOTOPIC_WEIGHT>
411.17806180

> <PUBCHEM_TOTAL_CHARGE>
0

> <PUBCHEM_HEAVY_ATOM_COUNT>
29

> <PUBCHEM_ATOM_DEF_STEREO_COUNT>
2

> <PUBCHEM_ATOM_UDEF_STEREO_COUNT>
0

> <PUBCHEM_BOND_DEF_STEREO_COUNT>
0

> <PUBCHEM_BOND_UDEF_STEREO_COUNT>
0

> <PUBCHEM_ISOTOPIC_ATOM_COUNT>
0

> <PUBCHEM_COMPONENT_COUNT>
1

> <PUBCHEM_CACTVS_TAUTO_COUNT>
-1

> <PUBCHEM_COORDINATE_TYPE>
1
5
255

> <PUBCHEM_BONDANNOTATIONS>
11  12  8
11  17  8
12  15  8
15  20  8
17  21  8
20  21  8
24  25  8
24  26  8
25  27  8
26  28  8
27  29  8
28  29  8
7  30  6
8  31  6

$$$$
