138671888
  -OEChem-09292322452D

 71 74  0     1  0  0  0  0  0999 V2000
   14.7691   -0.3330    0.0000 S   0  0  0  0  0  0  0  0  0  0  0  0
    3.1284    1.5069    0.0000 S   0  0  0  0  0  0  0  0  0  0  0  0
   18.8609   -1.9833    0.0000 F   0  0  0  0  0  0  0  0  0  0  0  0
    6.1234    1.4173    0.0000 O   0  0  0  0  0  0  0  0  0  0  0  0
   16.3567   -1.1298    0.0000 O   0  0  0  0  0  0  0  0  0  0  0  0
   11.6362   -1.1533    0.0000 N   0  0  3  0  0  0  0  0  0  0  0  0
    6.1320   -0.3147    0.0000 N   0  0  0  0  0  0  0  0  0  0  0  0
   14.7771   -1.9424    0.0000 N   0  0  0  0  0  0  0  0  0  0  0  0
    3.7791    2.9883    0.0000 N   0  0  0  0  0  0  0  0  0  0  0  0
    9.1320   -0.2998    0.0000 C   0  0  0  0  0  0  0  0  0  0  0  0
    8.6363   -1.1683    0.0000 C   0  0  0  0  0  0  0  0  0  0  0  0
    8.6276    0.5637    0.0000 C   0  0  0  0  0  0  0  0  0  0  0  0
    7.1320   -0.3097    0.0000 C   0  0  0  0  0  0  0  0  0  0  0  0
    7.6363   -1.1733    0.0000 C   0  0  0  0  0  0  0  0  0  0  0  0
    7.6277    0.5588    0.0000 C   0  0  0  0  0  0  0  0  0  0  0  0
   10.1319   -0.2948    0.0000 C   0  0  0  0  0  0  0  0  0  0  0  0
   10.6363   -1.1583    0.0000 C   0  0  0  0  0  0  0  0  0  0  0  0
   12.0656   -0.2502    0.0000 C   0  0  0  0  0  0  0  0  0  0  0  0
   12.0746   -2.0521    0.0000 C   0  0  0  0  0  0  0  0  0  0  0  0
   13.0394   -0.0228    0.0000 C   0  0  0  0  0  0  0  0  0  0  0  0
   13.0506   -2.2698    0.0000 C   0  0  0  0  0  0  0  0  0  0  0  0
    5.6277    0.5488    0.0000 C   0  0  0  0  0  0  0  0  0  0  0  0
   13.8244   -0.6424    0.0000 C   0  0  0  0  0  0  0  0  0  0  0  0
   13.8294   -1.6424    0.0000 C   0  0  0  0  0  0  0  0  0  0  0  0
    4.6277    0.5438    0.0000 C   0  0  0  0  0  0  0  0  0  0  0  0
   15.3567   -1.1348    0.0000 C   0  0  0  0  0  0  0  0  0  0  0  0
    4.1234    1.4073    0.0000 C   0  0  0  0  0  0  0  0  0  0  0  0
   16.8610   -1.9933    0.0000 C   0  0  0  0  0  0  0  0  0  0  0  0
    4.5256    2.3229    0.0000 C   0  0  0  0  0  0  0  0  0  0  0  0
   17.8610   -1.9883    0.0000 C   0  0  0  0  0  0  0  0  0  0  0  0
    2.9156    2.4840    0.0000 C   0  0  0  0  0  0  0  0  0  0  0  0
   17.8659   -2.9883    0.0000 C   0  0  0  0  0  0  0  0  0  0  0  0
   17.8560   -0.9883    0.0000 C   0  0  0  0  0  0  0  0  0  0  0  0
    2.0000    2.8862    0.0000 C   0  0  0  0  0  0  0  0  0  0  0  0
    9.4393    0.2387    0.0000 H   0  0  0  0  0  0  0  0  0  0  0  0
    8.5317   -1.7794    0.0000 H   0  0  0  0  0  0  0  0  0  0  0  0
    9.2199   -1.3774    0.0000 H   0  0  0  0  0  0  0  0  0  0  0  0
    9.2092    0.7787    0.0000 H   0  0  0  0  0  0  0  0  0  0  0  0
    8.5169    1.1738    0.0000 H   0  0  0  0  0  0  0  0  0  0  0  0
    6.8193    0.2256    0.0000 H   0  0  0  0  0  0  0  0  0  0  0  0
    7.0548   -1.3882    0.0000 H   0  0  0  0  0  0  0  0  0  0  0  0
    7.7470   -1.7833    0.0000 H   0  0  0  0  0  0  0  0  0  0  0  0
    7.7323    1.1699    0.0000 H   0  0  0  0  0  0  0  0  0  0  0  0
    7.0440    0.7679    0.0000 H   0  0  0  0  0  0  0  0  0  0  0  0
   10.7135   -0.0798    0.0000 H   0  0  0  0  0  0  0  0  0  0  0  0
   10.0212    0.3153    0.0000 H   0  0  0  0  0  0  0  0  0  0  0  0
   10.0547   -1.3733    0.0000 H   0  0  0  0  0  0  0  0  0  0  0  0
   10.7470   -1.7683    0.0000 H   0  0  0  0  0  0  0  0  0  0  0  0
    5.8247   -0.8532    0.0000 H   0  0  0  0  0  0  0  0  0  0  0  0
   12.0625    0.3698    0.0000 H   0  0  0  0  0  0  0  0  0  0  0  0
   11.4605   -0.1153    0.0000 H   0  0  0  0  0  0  0  0  0  0  0  0
   11.4709   -2.1931    0.0000 H   0  0  0  0  0  0  0  0  0  0  0  0
   12.0777   -2.6721    0.0000 H   0  0  0  0  0  0  0  0  0  0  0  0
   13.5222    0.3662    0.0000 H   0  0  0  0  0  0  0  0  0  0  0  0
   12.7676    0.5344    0.0000 H   0  0  0  0  0  0  0  0  0  0  0  0
   12.7844   -2.8297    0.0000 H   0  0  0  0  0  0  0  0  0  0  0  0
   13.5373   -2.6539    0.0000 H   0  0  0  0  0  0  0  0  0  0  0  0
    4.0462    0.3288    0.0000 H   0  0  0  0  0  0  0  0  0  0  0  0
    4.7384   -0.0662    0.0000 H   0  0  0  0  0  0  0  0  0  0  0  0
   16.2794   -2.2083    0.0000 H   0  0  0  0  0  0  0  0  0  0  0  0
   16.9717   -2.6033    0.0000 H   0  0  0  0  0  0  0  0  0  0  0  0
    5.1314    2.4548    0.0000 H   0  0  0  0  0  0  0  0  0  0  0  0
   17.2459   -2.9914    0.0000 H   0  0  0  0  0  0  0  0  0  0  0  0
   17.8690   -3.6083    0.0000 H   0  0  0  0  0  0  0  0  0  0  0  0
   18.4859   -2.9852    0.0000 H   0  0  0  0  0  0  0  0  0  0  0  0
   18.4760   -0.9852    0.0000 H   0  0  0  0  0  0  0  0  0  0  0  0
   17.8529   -0.3683    0.0000 H   0  0  0  0  0  0  0  0  0  0  0  0
   17.2360   -0.9914    0.0000 H   0  0  0  0  0  0  0  0  0  0  0  0
    2.2494    3.4538    0.0000 H   0  0  0  0  0  0  0  0  0  0  0  0
    1.4324    3.1355    0.0000 H   0  0  0  0  0  0  0  0  0  0  0  0
    1.7506    2.3185    0.0000 H   0  0  0  0  0  0  0  0  0  0  0  0
  1 23  1  0  0  0  0
  1 26  1  0  0  0  0
  2 27  1  0  0  0  0
  2 31  1  0  0  0  0
  3 30  1  0  0  0  0
  4 22  2  0  0  0  0
  5 26  1  0  0  0  0
  5 28  1  0  0  0  0
  6 17  1  0  0  0  0
  6 18  1  0  0  0  0
  6 19  1  0  0  0  0
  7 13  1  0  0  0  0
  7 22  1  0  0  0  0
  7 49  1  0  0  0  0
  8 24  1  0  0  0  0
  8 26  2  0  0  0  0
  9 29  1  0  0  0  0
  9 31  2  0  0  0  0
 10 11  1  0  0  0  0
 10 12  1  0  0  0  0
 10 16  1  0  0  0  0
 10 35  1  0  0  0  0
 11 14  1  0  0  0  0
 11 36  1  0  0  0  0
 11 37  1  0  0  0  0
 12 15  1  0  0  0  0
 12 38  1  0  0  0  0
 12 39  1  0  0  0  0
 13 14  1  0  0  0  0
 13 15  1  0  0  0  0
 13 40  1  0  0  0  0
 14 41  1  0  0  0  0
 14 42  1  0  0  0  0
 15 43  1  0  0  0  0
 15 44  1  0  0  0  0
 16 17  1  0  0  0  0
 16 45  1  0  0  0  0
 16 46  1  0  0  0  0
 17 47  1  0  0  0  0
 17 48  1  0  0  0  0
 18 20  1  0  0  0  0
 18 50  1  0  0  0  0
 18 51  1  0  0  0  0
 19 21  1  0  0  0  0
 19 52  1  0  0  0  0
 19 53  1  0  0  0  0
 20 23  1  0  0  0  0
 20 54  1  0  0  0  0
 20 55  1  0  0  0  0
 21 24  1  0  0  0  0
 21 56  1  0  0  0  0
 21 57  1  0  0  0  0
 22 25  1  0  0  0  0
 23 24  2  0  0  0  0
 25 27  1  0  0  0  0
 25 58  1  0  0  0  0
 25 59  1  0  0  0  0
 27 29  2  0  0  0  0
 28 30  1  0  0  0  0
 28 60  1  0  0  0  0
 28 61  1  0  0  0  0
 29 62  1  0  0  0  0
 30 32  1  0  0  0  0
 30 33  1  0  0  0  0
 31 34  1  0  0  0  0
 32 63  1  0  0  0  0
 32 64  1  0  0  0  0
 32 65  1  0  0  0  0
 33 66  1  0  0  0  0
 33 67  1  0  0  0  0
 33 68  1  0  0  0  0
 34 69  1  0  0  0  0
 34 70  1  0  0  0  0
 34 71  1  0  0  0  0
M  END
> <PUBCHEM_COMPOUND_CID>
138671888

> <PUBCHEM_COMPOUND_CANONICALIZED>
1

> <PUBCHEM_CACTVS_COMPLEXITY>
665

> <PUBCHEM_CACTVS_HBOND_ACCEPTOR>
8

> <PUBCHEM_CACTVS_HBOND_DONOR>
1

> <PUBCHEM_CACTVS_ROTATABLE_BOND>
9

> <PUBCHEM_CACTVS_SUBSKEYS>
AAADcfB7sQBgAAAAAAAAAAAAAAAAAWLAAAAwAAAABYAAAACx4AAAHwQQAAAADSjh1gYugRPIFAisARV3VAAA8KBxCDhAWJ04QAgAIBJgxQEMAAAgFgDoSAMUgIAOAAAAAAAAAAAQAAAAAAAAAAAAAAAAAA==

> <PUBCHEM_IUPAC_OPENEYE_NAME>
N-[4-[2-[2-(2-fluoro-2-methyl-propoxy)-4,5,7,8-tetrahydrothiazolo[4,5-d]azepin-6-yl]ethyl]cyclohexyl]-2-(2-methylthiazol-5-yl)acetamide

> <PUBCHEM_IUPAC_CAS_NAME>
N-[4-[2-[2-(2-fluoro-2-methylpropoxy)-4,5,7,8-tetrahydrothiazolo[4,5-d]azepin-6-yl]ethyl]cyclohexyl]-2-(2-methyl-5-thiazolyl)acetamide

> <PUBCHEM_IUPAC_NAME_MARKUP>
<I>N</I>-[4-[2-[2-(2-fluoro-2-methylpropoxy)-4,5,7,8-tetrahydro-[1,3]thiazolo[4,5-d]azepin-6-yl]ethyl]cyclohexyl]-2-(2-methyl-1,3-thiazol-5-yl)acetamide

> <PUBCHEM_IUPAC_NAME>
N-[4-[2-[2-(2-fluoro-2-methylpropoxy)-4,5,7,8-tetrahydro-[1,3]thiazolo[4,5-d]azepin-6-yl]ethyl]cyclohexyl]-2-(2-methyl-1,3-thiazol-5-yl)acetamide

> <PUBCHEM_IUPAC_SYSTEMATIC_NAME>
N-[4-[2-[2-(2-fluoranyl-2-methyl-propoxy)-4,5,7,8-tetrahydro-[1,3]thiazolo[4,5-d]azepin-6-yl]ethyl]cyclohexyl]-2-(2-methyl-1,3-thiazol-5-yl)ethanamide

> <PUBCHEM_IUPAC_TRADITIONAL_NAME>
N-[4-[2-[2-(2-fluoro-2-methyl-propoxy)-4,5,7,8-tetrahydrothiazol[4,5-d]azepin-6-yl]ethyl]cyclohexyl]-2-(2-methylthiazol-5-yl)acetamide

> <PUBCHEM_IUPAC_INCHI>
InChI=1S/C25H37FN4O2S2/c1-17-27-15-20(33-17)14-23(31)28-19-6-4-18(5-7-19)8-11-30-12-9-21-22(10-13-30)34-24(29-21)32-16-25(2,3)26/h15,18-19H,4-14,16H2,1-3H3,(H,28,31)

> <PUBCHEM_IUPAC_INCHIKEY>
KMECPQXFZFDCGK-UHFFFAOYSA-N

> <PUBCHEM_XLOGP3_AA>
4.9

> <PUBCHEM_EXACT_MASS>
508.23419694

> <PUBCHEM_MOLECULAR_FORMULA>
C25H37FN4O2S2

> <PUBCHEM_MOLECULAR_WEIGHT>
508.7

> <PUBCHEM_OPENEYE_CAN_SMILES>
CC1=NC=C(S1)CC(=O)NC2CCC(CC2)CCN3CCC4=C(CC3)SC(=N4)OCC(C)(C)F

> <PUBCHEM_OPENEYE_ISO_SMILES>
CC1=NC=C(S1)CC(=O)NC2CCC(CC2)CCN3CCC4=C(CC3)SC(=N4)OCC(C)(C)F

> <PUBCHEM_CACTVS_TPSA>
124

> <PUBCHEM_MONOISOTOPIC_WEIGHT>
508.23419694

> <PUBCHEM_TOTAL_CHARGE>
0

> <PUBCHEM_HEAVY_ATOM_COUNT>
34

> <PUBCHEM_ATOM_DEF_STEREO_COUNT>
0

> <PUBCHEM_ATOM_UDEF_STEREO_COUNT>
0

> <PUBCHEM_BOND_DEF_STEREO_COUNT>
0

> <PUBCHEM_BOND_UDEF_STEREO_COUNT>
0

> <PUBCHEM_ISOTOPIC_ATOM_COUNT>
0

> <PUBCHEM_COMPONENT_COUNT>
1

> <PUBCHEM_CACTVS_TAUTO_COUNT>
-1

> <PUBCHEM_COORDINATE_TYPE>
1
5
255

> <PUBCHEM_BONDANNOTATIONS>
1  23  8
1  26  8
2  27  8
2  31  8
23  24  8
27  29  8
8  24  8
8  26  8
9  29  8
9  31  8

$$$$
