136043857
  -OEChem-09292322282D

 55 60  0     0  0  0  0  0  0999 V2000
    8.9258   -2.9294    0.0000 Cl  0  0  0  0  0  0  0  0  0  0  0  0
    2.0289    3.5466    0.0000 O   0  0  0  0  0  0  0  0  0  0  0  0
    2.9355    4.8764    0.0000 O   0  0  0  0  0  0  0  0  0  0  0  0
    3.2868    0.6372    0.0000 N   0  0  0  0  0  0  0  0  0  0  0  0
    4.1545   -1.1648    0.0000 N   0  0  0  0  0  0  0  0  0  0  0  0
    5.5884   -2.0658    0.0000 N   0  0  0  0  0  0  0  0  0  0  0  0
    5.0884   -4.2564    0.0000 N   0  0  0  0  0  0  0  0  0  0  0  0
    4.2840    0.5624    0.0000 C   0  0  0  0  0  0  0  0  0  0  0  0
    2.7234   -0.1891    0.0000 C   0  0  0  0  0  0  0  0  0  0  0  0
    4.7178   -0.3385    0.0000 C   0  0  0  0  0  0  0  0  0  0  0  0
    3.1573   -1.0900    0.0000 C   0  0  0  0  0  0  0  0  0  0  0  0
    2.8529    1.5381    0.0000 C   0  0  0  0  0  0  0  0  0  0  0  0
    4.5884   -2.0658    0.0000 C   0  0  0  0  0  0  0  0  0  0  0  0
    3.4162    2.3644    0.0000 C   0  0  0  0  0  0  0  0  0  0  0  0
    3.9649   -2.8476    0.0000 C   0  0  0  0  0  0  0  0  0  0  0  0
    2.9823    3.2654    0.0000 C   0  0  0  0  0  0  0  0  0  0  0  0
    4.1874   -3.8225    0.0000 C   0  0  0  0  0  0  0  0  0  0  0  0
    4.4134    2.2896    0.0000 C   0  0  0  0  0  0  0  0  0  0  0  0
    3.5457    4.0916    0.0000 C   0  0  0  0  0  0  0  0  0  0  0  0
    6.2119   -2.8476    0.0000 C   0  0  0  0  0  0  0  0  0  0  0  0
    2.9744   -2.5252    0.0000 C   0  0  0  0  0  0  0  0  0  0  0  0
    5.9894   -3.8225    0.0000 C   0  0  0  0  0  0  0  0  0  0  0  0
    4.9767    3.1159    0.0000 C   0  0  0  0  0  0  0  0  0  0  0  0
    3.4348   -4.5427    0.0000 C   0  0  0  0  0  0  0  0  0  0  0  0
    4.5429    4.0168    0.0000 C   0  0  0  0  0  0  0  0  0  0  0  0
    2.0000    4.5403    0.0000 C   0  0  0  0  0  0  0  0  0  0  0  0
    2.2054   -3.2278    0.0000 C   0  0  0  0  0  0  0  0  0  0  0  0
    2.4372   -4.2433    0.0000 C   0  0  0  0  0  0  0  0  0  0  0  0
    7.2024   -2.5253    0.0000 C   0  0  0  0  0  0  0  0  0  0  0  0
    6.7419   -4.5427    0.0000 C   0  0  0  0  0  0  0  0  0  0  0  0
    7.9714   -3.2278    0.0000 C   0  0  0  0  0  0  0  0  0  0  0  0
    7.7396   -4.2434    0.0000 C   0  0  0  0  0  0  0  0  0  0  0  0
    4.8808    0.7303    0.0000 H   0  0  0  0  0  0  0  0  0  0  0  0
    4.2222    1.1793    0.0000 H   0  0  0  0  0  0  0  0  0  0  0  0
    2.2796    0.2438    0.0000 H   0  0  0  0  0  0  0  0  0  0  0  0
    2.2200   -0.5510    0.0000 H   0  0  0  0  0  0  0  0  0  0  0  0
    5.1617   -0.7714    0.0000 H   0  0  0  0  0  0  0  0  0  0  0  0
    5.2213    0.0234    0.0000 H   0  0  0  0  0  0  0  0  0  0  0  0
    2.5605   -1.2579    0.0000 H   0  0  0  0  0  0  0  0  0  0  0  0
    3.2190   -1.7070    0.0000 H   0  0  0  0  0  0  0  0  0  0  0  0
    2.4090    1.9710    0.0000 H   0  0  0  0  0  0  0  0  0  0  0  0
    2.3495    1.1762    0.0000 H   0  0  0  0  0  0  0  0  0  0  0  0
    4.6824    1.7310    0.0000 H   0  0  0  0  0  0  0  0  0  0  0  0
    2.8434   -1.9192    0.0000 H   0  0  0  0  0  0  0  0  0  0  0  0
    5.0884   -4.8764    0.0000 H   0  0  0  0  0  0  0  0  0  0  0  0
    5.5950    3.0695    0.0000 H   0  0  0  0  0  0  0  0  0  0  0  0
    3.5798   -5.1455    0.0000 H   0  0  0  0  0  0  0  0  0  0  0  0
    4.8921    4.5291    0.0000 H   0  0  0  0  0  0  0  0  0  0  0  0
    1.8528    5.1425    0.0000 H   0  0  0  0  0  0  0  0  0  0  0  0
    1.3856    4.4572    0.0000 H   0  0  0  0  0  0  0  0  0  0  0  0
    1.6136   -3.0428    0.0000 H   0  0  0  0  0  0  0  0  0  0  0  0
    1.9843   -4.6668    0.0000 H   0  0  0  0  0  0  0  0  0  0  0  0
    7.3334   -1.9192    0.0000 H   0  0  0  0  0  0  0  0  0  0  0  0
    6.5970   -5.1455    0.0000 H   0  0  0  0  0  0  0  0  0  0  0  0
    8.1924   -4.6668    0.0000 H   0  0  0  0  0  0  0  0  0  0  0  0
  1 31  1  0  0  0  0
  2 16  1  0  0  0  0
  2 26  1  0  0  0  0
  3 19  1  0  0  0  0
  3 26  1  0  0  0  0
  4  8  1  0  0  0  0
  4  9  1  0  0  0  0
  4 12  1  0  0  0  0
  5 10  1  0  0  0  0
  5 11  1  0  0  0  0
  5 13  1  0  0  0  0
  6 13  2  0  0  0  0
  6 20  1  0  0  0  0
  7 17  1  0  0  0  0
  7 22  1  0  0  0  0
  7 45  1  0  0  0  0
  8 10  1  0  0  0  0
  8 33  1  0  0  0  0
  8 34  1  0  0  0  0
  9 11  1  0  0  0  0
  9 35  1  0  0  0  0
  9 36  1  0  0  0  0
 10 37  1  0  0  0  0
 10 38  1  0  0  0  0
 11 39  1  0  0  0  0
 11 40  1  0  0  0  0
 12 14  1  0  0  0  0
 12 41  1  0  0  0  0
 12 42  1  0  0  0  0
 13 15  1  0  0  0  0
 14 16  2  0  0  0  0
 14 18  1  0  0  0  0
 15 17  1  0  0  0  0
 15 21  2  0  0  0  0
 16 19  1  0  0  0  0
 17 24  2  0  0  0  0
 18 23  2  0  0  0  0
 18 43  1  0  0  0  0
 19 25  2  0  0  0  0
 20 22  2  0  0  0  0
 20 29  1  0  0  0  0
 21 27  1  0  0  0  0
 21 44  1  0  0  0  0
 22 30  1  0  0  0  0
 23 25  1  0  0  0  0
 23 46  1  0  0  0  0
 24 28  1  0  0  0  0
 24 47  1  0  0  0  0
 25 48  1  0  0  0  0
 26 49  1  0  0  0  0
 26 50  1  0  0  0  0
 27 28  2  0  0  0  0
 27 51  1  0  0  0  0
 28 52  1  0  0  0  0
 29 31  2  0  0  0  0
 29 53  1  0  0  0  0
 30 32  2  0  0  0  0
 30 54  1  0  0  0  0
 31 32  1  0  0  0  0
 32 55  1  0  0  0  0
M  END
> <PUBCHEM_COMPOUND_CID>
136043857

> <PUBCHEM_COMPOUND_CANONICALIZED>
1

> <PUBCHEM_CACTVS_COMPLEXITY>
685

> <PUBCHEM_CACTVS_HBOND_ACCEPTOR>
5

> <PUBCHEM_CACTVS_HBOND_DONOR>
1

> <PUBCHEM_CACTVS_ROTATABLE_BOND>
3

> <PUBCHEM_CACTVS_SUBSKEYS>
AAADceB7sAAEAAAAAAAAAAAAAAAAASAAAAA8YMEABAAAAEgBUAAAHgIQAAAADA7BmCcxzoPABACgAiZiZACCCAEhJwAJiAAu/pgdZuLF+5u0MCpm0BHO6AewwDAOAABBAAIKQCAAAIIABBSAQAAAAAAAAA==

> <PUBCHEM_IUPAC_OPENEYE_NAME>
6-[4-(1,3-benzodioxol-4-ylmethyl)piperazin-1-yl]-3-chloro-11H-benzo[b][1,4]benzodiazepine

> <PUBCHEM_IUPAC_CAS_NAME>
6-[4-(1,3-benzodioxol-4-ylmethyl)-1-piperazinyl]-3-chloro-11H-benzo[b][1,4]benzodiazepine

> <PUBCHEM_IUPAC_NAME_MARKUP>
6-[4-(1,3-benzodioxol-4-ylmethyl)piperazin-1-yl]-3-chloro-11<I>H</I>-benzo[b][1,4]benzodiazepine

> <PUBCHEM_IUPAC_NAME>
6-[4-(1,3-benzodioxol-4-ylmethyl)piperazin-1-yl]-3-chloro-11H-benzo[b][1,4]benzodiazepine

> <PUBCHEM_IUPAC_SYSTEMATIC_NAME>
6-[4-(1,3-benzodioxol-4-ylmethyl)piperazin-1-yl]-3-chloranyl-11H-benzo[b][1,4]benzodiazepine

> <PUBCHEM_IUPAC_TRADITIONAL_NAME>
6-[4-(1,3-benzodioxol-4-ylmethyl)piperazino]-3-chloro-11H-benzo[b][1,4]benzodiazepine

> <PUBCHEM_IUPAC_INCHI>
InChI=1S/C25H23ClN4O2/c26-18-8-9-21-22(14-18)28-25(19-5-1-2-6-20(19)27-21)30-12-10-29(11-13-30)15-17-4-3-7-23-24(17)32-16-31-23/h1-9,14,27H,10-13,15-16H2

> <PUBCHEM_IUPAC_INCHIKEY>
NFKQELYFWQDRFN-UHFFFAOYSA-N

> <PUBCHEM_XLOGP3_AA>
4.4

> <PUBCHEM_EXACT_MASS>
446.1509537

> <PUBCHEM_MOLECULAR_FORMULA>
C25H23ClN4O2

> <PUBCHEM_MOLECULAR_WEIGHT>
446.9

> <PUBCHEM_OPENEYE_CAN_SMILES>
C1CN(CCN1CC2=C3C(=CC=C2)OCO3)C4=NC5=C(C=CC(=C5)Cl)NC6=CC=CC=C64

> <PUBCHEM_OPENEYE_ISO_SMILES>
C1CN(CCN1CC2=C3C(=CC=C2)OCO3)C4=NC5=C(C=CC(=C5)Cl)NC6=CC=CC=C64

> <PUBCHEM_CACTVS_TPSA>
49.3

> <PUBCHEM_MONOISOTOPIC_WEIGHT>
446.1509537

> <PUBCHEM_TOTAL_CHARGE>
0

> <PUBCHEM_HEAVY_ATOM_COUNT>
32

> <PUBCHEM_ATOM_DEF_STEREO_COUNT>
0

> <PUBCHEM_ATOM_UDEF_STEREO_COUNT>
0

> <PUBCHEM_BOND_DEF_STEREO_COUNT>
0

> <PUBCHEM_BOND_UDEF_STEREO_COUNT>
0

> <PUBCHEM_ISOTOPIC_ATOM_COUNT>
0

> <PUBCHEM_COMPONENT_COUNT>
1

> <PUBCHEM_CACTVS_TAUTO_COUNT>
-1

> <PUBCHEM_COORDINATE_TYPE>
1
5
255

> <PUBCHEM_BONDANNOTATIONS>
14  16  8
14  18  8
15  17  8
15  21  8
16  19  8
17  24  8
18  23  8
19  25  8
20  22  8
20  29  8
21  27  8
22  30  8
23  25  8
24  28  8
27  28  8
29  31  8
30  32  8
31  32  8

$$$$
