46231926
  -OEChem-09292322292D

 59 63  0     1  0  0  0  0  0999 V2000
    2.1374    4.2048    0.0000 Cl  0  0  0  0  0  0  0  0  0  0  0  0
    2.5932    2.2079    0.0000 O   0  0  0  0  0  0  0  0  0  0  0  0
    8.2502   -1.9532    0.0000 O   0  0  0  0  0  0  0  0  0  0  0  0
    7.0983    4.2866    0.0000 N   0  0  3  0  0  0  0  0  0  0  0  0
    7.4218   -1.3931    0.0000 N   0  0  0  0  0  0  0  0  0  0  0  0
    6.8758    3.3117    0.0000 C   0  0  2  0  0  0  0  0  0  0  0  0
    5.9748    2.8778    0.0000 C   0  0  2  0  0  0  0  0  0  0  0  0
    7.7453    2.7383    0.0000 C   0  0  0  0  0  0  0  0  0  0  0  0
    5.8810    1.8404    0.0000 C   0  0  0  0  0  0  0  0  0  0  0  0
    7.6755    1.6990    0.0000 C   0  0  0  0  0  0  0  0  0  0  0  0
    5.0738    3.3117    0.0000 C   0  0  0  0  0  0  0  0  0  0  0  0
    6.7370    1.2470    0.0000 C   0  0  0  0  0  0  0  0  0  0  0  0
    6.4748    5.0685    0.0000 C   0  0  0  0  0  0  0  0  0  0  0  0
    4.8513    4.2866    0.0000 C   0  0  0  0  0  0  0  0  0  0  0  0
    5.4748    5.0685    0.0000 C   0  0  0  0  0  0  0  0  0  0  0  0
    8.0732    4.5092    0.0000 C   0  0  0  0  0  0  0  0  0  0  0  0
    4.8928    1.3924    0.0000 C   0  0  0  0  0  0  0  0  0  0  0  0
    6.6643    0.1645    0.0000 C   0  0  0  0  0  0  0  0  0  0  0  0
    4.3213    2.5915    0.0000 C   0  0  0  0  0  0  0  0  0  0  0  0
    3.8608    4.6090    0.0000 C   0  0  0  0  0  0  0  0  0  0  0  0
    4.7950    0.3118    0.0000 C   0  0  0  0  0  0  0  0  0  0  0  0
    5.6868   -0.3063    0.0000 C   0  0  0  0  0  0  0  0  0  0  0  0
    3.3236    2.8909    0.0000 C   0  0  0  0  0  0  0  0  0  0  0  0
    3.0918    3.9064    0.0000 C   0  0  0  0  0  0  0  0  0  0  0  0
    7.4927   -0.3956    0.0000 C   0  0  0  0  0  0  0  0  0  0  0  0
    8.1793   -2.9507    0.0000 C   0  0  0  0  0  0  0  0  0  0  0  0
    9.0077   -3.5109    0.0000 C   0  0  0  0  0  0  0  0  0  0  0  0
    9.9070   -3.0735    0.0000 C   0  0  0  0  0  0  0  0  0  0  0  0
    8.9368   -4.5084    0.0000 C   0  0  0  0  0  0  0  0  0  0  0  0
   10.7354   -3.6336    0.0000 C   0  0  0  0  0  0  0  0  0  0  0  0
    9.7653   -5.0685    0.0000 C   0  0  0  0  0  0  0  0  0  0  0  0
   10.6645   -4.6311    0.0000 C   0  0  0  0  0  0  0  0  0  0  0  0
    7.6646    3.6284    0.0000 H   0  0  0  0  0  0  0  0  0  0  0  0
    5.2354    2.4585    0.0000 H   0  0  0  0  0  0  0  0  0  0  0  0
    8.3477    2.5915    0.0000 H   0  0  0  0  0  0  0  0  0  0  0  0
    7.9931    3.3066    0.0000 H   0  0  0  0  0  0  0  0  0  0  0  0
    7.8450    1.1026    0.0000 H   0  0  0  0  0  0  0  0  0  0  0  0
    8.2921    1.7639    0.0000 H   0  0  0  0  0  0  0  0  0  0  0  0
    7.0334    5.3375    0.0000 H   0  0  0  0  0  0  0  0  0  0  0  0
    6.3368    5.6729    0.0000 H   0  0  0  0  0  0  0  0  0  0  0  0
    5.6128    5.6729    0.0000 H   0  0  0  0  0  0  0  0  0  0  0  0
    4.9162    5.3375    0.0000 H   0  0  0  0  0  0  0  0  0  0  0  0
    8.2112    3.9047    0.0000 H   0  0  0  0  0  0  0  0  0  0  0  0
    8.6777    4.6471    0.0000 H   0  0  0  0  0  0  0  0  0  0  0  0
    7.9352    5.1136    0.0000 H   0  0  0  0  0  0  0  0  0  0  0  0
    4.3873    1.7515    0.0000 H   0  0  0  0  0  0  0  0  0  0  0  0
    4.4662    1.9887    0.0000 H   0  0  0  0  0  0  0  0  0  0  0  0
    3.7298    5.2150    0.0000 H   0  0  0  0  0  0  0  0  0  0  0  0
    4.2334    0.0493    0.0000 H   0  0  0  0  0  0  0  0  0  0  0  0
    5.6380   -0.9243    0.0000 H   0  0  0  0  0  0  0  0  0  0  0  0
    8.0503   -0.1245    0.0000 H   0  0  0  0  0  0  0  0  0  0  0  0
    2.0000    2.3884    0.0000 H   0  0  0  0  0  0  0  0  0  0  0  0
    7.5779   -2.8001    0.0000 H   0  0  0  0  0  0  0  0  0  0  0  0
    7.9265   -3.5168    0.0000 H   0  0  0  0  0  0  0  0  0  0  0  0
    9.9510   -2.4551    0.0000 H   0  0  0  0  0  0  0  0  0  0  0  0
    8.3793   -4.7795    0.0000 H   0  0  0  0  0  0  0  0  0  0  0  0
   11.2930   -3.3625    0.0000 H   0  0  0  0  0  0  0  0  0  0  0  0
    9.7213   -5.6869    0.0000 H   0  0  0  0  0  0  0  0  0  0  0  0
   11.1782   -4.9784    0.0000 H   0  0  0  0  0  0  0  0  0  0  0  0
  1 24  1  0  0  0  0
  2 23  1  0  0  0  0
  2 52  1  0  0  0  0
  3  5  1  0  0  0  0
  3 26  1  0  0  0  0
  4  6  1  0  0  0  0
  4 13  1  0  0  0  0
  4 16  1  0  0  0  0
  5 25  2  0  0  0  0
  6  7  1  0  0  0  0
  6  8  1  0  0  0  0
  6 33  1  6  0  0  0
  7  9  1  0  0  0  0
  7 11  1  0  0  0  0
  7 34  1  1  0  0  0
  8 10  1  0  0  0  0
  8 35  1  0  0  0  0
  8 36  1  0  0  0  0
  9 12  1  0  0  0  0
  9 17  2  0  0  0  0
 10 12  1  0  0  0  0
 10 37  1  0  0  0  0
 10 38  1  0  0  0  0
 11 14  1  0  0  0  0
 11 19  2  0  0  0  0
 12 18  2  0  0  0  0
 13 15  1  0  0  0  0
 13 39  1  0  0  0  0
 13 40  1  0  0  0  0
 14 15  1  0  0  0  0
 14 20  2  0  0  0  0
 15 41  1  0  0  0  0
 15 42  1  0  0  0  0
 16 43  1  0  0  0  0
 16 44  1  0  0  0  0
 16 45  1  0  0  0  0
 17 21  1  0  0  0  0
 17 46  1  0  0  0  0
 18 22  1  0  0  0  0
 18 25  1  0  0  0  0
 19 23  1  0  0  0  0
 19 47  1  0  0  0  0
 20 24  1  0  0  0  0
 20 48  1  0  0  0  0
 21 22  2  0  0  0  0
 21 49  1  0  0  0  0
 22 50  1  0  0  0  0
 23 24  2  0  0  0  0
 25 51  1  0  0  0  0
 26 27  1  0  0  0  0
 26 53  1  0  0  0  0
 26 54  1  0  0  0  0
 27 28  2  0  0  0  0
 27 29  1  0  0  0  0
 28 30  1  0  0  0  0
 28 55  1  0  0  0  0
 29 31  2  0  0  0  0
 29 56  1  0  0  0  0
 30 32  2  0  0  0  0
 30 57  1  0  0  0  0
 31 32  1  0  0  0  0
 31 58  1  0  0  0  0
 32 59  1  0  0  0  0
M  END
> <PUBCHEM_COMPOUND_CID>
46231926

> <PUBCHEM_COMPOUND_CANONICALIZED>
1

> <PUBCHEM_CACTVS_COMPLEXITY>
639

> <PUBCHEM_CACTVS_HBOND_ACCEPTOR>
4

> <PUBCHEM_CACTVS_HBOND_DONOR>
1

> <PUBCHEM_CACTVS_ROTATABLE_BOND>
4

> <PUBCHEM_CACTVS_SUBSKEYS>
AAADceB7MAAEAAAAAAAAAAAAAAAAAAAAAAAwYMGABYAAAADBUAAAHgIECAAADS7hmCYyBoMQAgCgAjBjAAACAAAgJUAIiAAuC5gIJqKDkxOEcAAkwBGImAeQ0PMOpAADIAAQCABYAAbAACQQAAAAAAAAAA==

> <PUBCHEM_IUPAC_OPENEYE_NAME>
(6aS,13bS)-4-[(E)-benzyloxyiminomethyl]-11-chloro-7-methyl-5,6,6a,8,9,13b-hexahydronaphtho[1,2-a][3]benzazepin-12-ol

> <PUBCHEM_IUPAC_CAS_NAME>
(6aS,13bS)-11-chloro-7-methyl-4-[(E)-phenylmethoxyiminomethyl]-5,6,6a,8,9,13b-hexahydronaphtho[1,2-a][3]benzazepin-12-ol

> <PUBCHEM_IUPAC_NAME_MARKUP>
(6<I>a</I><I>S</I>,13<I>b</I><I>S</I>)-11-chloro-7-methyl-4-[(<I>E</I>)-phenylmethoxyiminomethyl]-5,6,6<I>a</I>,8,9,13<I>b</I>-hexahydronaphtho[1,2-a][3]benzazepin-12-ol

> <PUBCHEM_IUPAC_NAME>
(6aS,13bS)-11-chloro-7-methyl-4-[(E)-phenylmethoxyiminomethyl]-5,6,6a,8,9,13b-hexahydronaphtho[1,2-a][3]benzazepin-12-ol

> <PUBCHEM_IUPAC_SYSTEMATIC_NAME>
(6aS,13bS)-11-chloranyl-7-methyl-4-[(E)-phenylmethoxyiminomethyl]-5,6,6a,8,9,13b-hexahydronaphtho[1,2-a][3]benzazepin-12-ol

> <PUBCHEM_IUPAC_TRADITIONAL_NAME>
(6aS,13bS)-4-[(E)-benzyloximinomethyl]-11-chloro-7-methyl-5,6,6a,8,9,13b-hexahydronaphtho[1,2-a][3]benzazepin-12-ol

> <PUBCHEM_IUPAC_INCHI>
InChI=1S/C27H27ClN2O2/c1-30-13-12-19-14-24(28)26(31)15-23(19)27-22-9-5-8-20(21(22)10-11-25(27)30)16-29-32-17-18-6-3-2-4-7-18/h2-9,14-16,25,27,31H,10-13,17H2,1H3/b29-16+/t25-,27+/m0/s1

> <PUBCHEM_IUPAC_INCHIKEY>
YUNGHULYKDVTOC-JJQUOXMWSA-N

> <PUBCHEM_XLOGP3_AA>
6

> <PUBCHEM_EXACT_MASS>
446.1761058

> <PUBCHEM_MOLECULAR_FORMULA>
C27H27ClN2O2

> <PUBCHEM_MOLECULAR_WEIGHT>
447.0

> <PUBCHEM_OPENEYE_CAN_SMILES>
CN1CCC2=CC(=C(C=C2C3C1CCC4=C(C=CC=C34)C=NOCC5=CC=CC=C5)O)Cl

> <PUBCHEM_OPENEYE_ISO_SMILES>
CN1CCC2=CC(=C(C=C2[C@@H]3[C@@H]1CCC4=C(C=CC=C34)/C=N/OCC5=CC=CC=C5)O)Cl

> <PUBCHEM_CACTVS_TPSA>
45.1

> <PUBCHEM_MONOISOTOPIC_WEIGHT>
446.1761058

> <PUBCHEM_TOTAL_CHARGE>
0

> <PUBCHEM_HEAVY_ATOM_COUNT>
32

> <PUBCHEM_ATOM_DEF_STEREO_COUNT>
2

> <PUBCHEM_ATOM_UDEF_STEREO_COUNT>
0

> <PUBCHEM_BOND_DEF_STEREO_COUNT>
1

> <PUBCHEM_BOND_UDEF_STEREO_COUNT>
0

> <PUBCHEM_ISOTOPIC_ATOM_COUNT>
0

> <PUBCHEM_COMPONENT_COUNT>
1

> <PUBCHEM_CACTVS_TAUTO_COUNT>
-1

> <PUBCHEM_COORDINATE_TYPE>
1
5
255

> <PUBCHEM_BONDANNOTATIONS>
11  14  8
11  19  8
12  18  8
14  20  8
17  21  8
18  22  8
19  23  8
20  24  8
21  22  8
23  24  8
27  28  8
27  29  8
28  30  8
29  31  8
30  32  8
31  32  8
6  33  6
7  34  5
9  12  8
9  17  8

$$$$
