66559506
  -OEChem-09292321592D

 58 62  0     0  0  0  0  0  0999 V2000
    4.5981    3.0773    0.0000 Cl  0  0  0  0  0  0  0  0  0  0  0  0
    2.8660    4.0773    0.0000 Cl  0  0  0  0  0  0  0  0  0  0  0  0
    8.9282   -3.4227    0.0000 O   0  0  0  0  0  0  0  0  0  0  0  0
   14.1904   -3.4468    0.0000 O   0  0  0  0  0  0  0  0  0  0  0  0
    6.3301    0.0773    0.0000 N   0  0  0  0  0  0  0  0  0  0  0  0
    4.5981    1.0773    0.0000 N   0  0  0  0  0  0  0  0  0  0  0  0
   12.4202   -3.4574    0.0000 N   0  0  0  0  0  0  0  0  0  0  0  0
    6.3301    1.0773    0.0000 C   0  0  0  0  0  0  0  0  0  0  0  0
    5.4641   -0.4227    0.0000 C   0  0  0  0  0  0  0  0  0  0  0  0
    5.4641    1.5773    0.0000 C   0  0  0  0  0  0  0  0  0  0  0  0
    4.5981    0.0773    0.0000 C   0  0  0  0  0  0  0  0  0  0  0  0
    7.1962   -0.4227    0.0000 C   0  0  0  0  0  0  0  0  0  0  0  0
    3.7320    1.5773    0.0000 C   0  0  0  0  0  0  0  0  0  0  0  0
    7.1962   -1.4227    0.0000 C   0  0  0  0  0  0  0  0  0  0  0  0
    3.7320    2.5773    0.0000 C   0  0  0  0  0  0  0  0  0  0  0  0
    2.8660    1.0773    0.0000 C   0  0  0  0  0  0  0  0  0  0  0  0
    8.0622   -1.9227    0.0000 C   0  0  0  0  0  0  0  0  0  0  0  0
    6.3301   -1.9227    0.0000 C   0  0  0  0  0  0  0  0  0  0  0  0
    8.0622   -2.9227    0.0000 C   0  0  0  0  0  0  0  0  0  0  0  0
   12.4202   -1.3880    0.0000 C   0  0  0  0  0  0  0  0  0  0  0  0
   11.5263   -1.9227    0.0000 C   0  0  0  0  0  0  0  0  0  0  0  0
   11.5263   -2.9227    0.0000 C   0  0  0  0  0  0  0  0  0  0  0  0
    2.8660    3.0773    0.0000 C   0  0  0  0  0  0  0  0  0  0  0  0
    2.0000    1.5773    0.0000 C   0  0  0  0  0  0  0  0  0  0  0  0
   13.3263   -1.9019    0.0000 C   0  0  0  0  0  0  0  0  0  0  0  0
    6.3301   -2.9227    0.0000 C   0  0  0  0  0  0  0  0  0  0  0  0
    7.1962   -3.4227    0.0000 C   0  0  0  0  0  0  0  0  0  0  0  0
    2.0000    2.5773    0.0000 C   0  0  0  0  0  0  0  0  0  0  0  0
    9.7942   -2.9227    0.0000 C   0  0  0  0  0  0  0  0  0  0  0  0
   10.6603   -3.4227    0.0000 C   0  0  0  0  0  0  0  0  0  0  0  0
   10.6603   -1.4227    0.0000 C   0  0  0  0  0  0  0  0  0  0  0  0
   13.3263   -2.9435    0.0000 C   0  0  0  0  0  0  0  0  0  0  0  0
    9.7942   -1.9227    0.0000 C   0  0  0  0  0  0  0  0  0  0  0  0
    6.9407    0.9696    0.0000 H   0  0  0  0  0  0  0  0  0  0  0  0
    6.5422    1.6599    0.0000 H   0  0  0  0  0  0  0  0  0  0  0  0
    5.0656   -0.8976    0.0000 H   0  0  0  0  0  0  0  0  0  0  0  0
    5.8626   -0.8976    0.0000 H   0  0  0  0  0  0  0  0  0  0  0  0
    5.8626    2.0523    0.0000 H   0  0  0  0  0  0  0  0  0  0  0  0
    5.0656    2.0523    0.0000 H   0  0  0  0  0  0  0  0  0  0  0  0
    3.9875    0.1850    0.0000 H   0  0  0  0  0  0  0  0  0  0  0  0
    4.3860   -0.5053    0.0000 H   0  0  0  0  0  0  0  0  0  0  0  0
    7.8067   -0.5304    0.0000 H   0  0  0  0  0  0  0  0  0  0  0  0
    7.4082    0.1599    0.0000 H   0  0  0  0  0  0  0  0  0  0  0  0
    2.8660    0.4573    0.0000 H   0  0  0  0  0  0  0  0  0  0  0  0
    8.5991   -1.6127    0.0000 H   0  0  0  0  0  0  0  0  0  0  0  0
    5.7932   -1.6127    0.0000 H   0  0  0  0  0  0  0  0  0  0  0  0
   12.8138   -0.9090    0.0000 H   0  0  0  0  0  0  0  0  0  0  0  0
   12.0156   -0.9182    0.0000 H   0  0  0  0  0  0  0  0  0  0  0  0
   13.9371   -2.0080    0.0000 H   0  0  0  0  0  0  0  0  0  0  0  0
   13.5353   -1.3182    0.0000 H   0  0  0  0  0  0  0  0  0  0  0  0
    1.4631    1.2673    0.0000 H   0  0  0  0  0  0  0  0  0  0  0  0
    5.7932   -3.2327    0.0000 H   0  0  0  0  0  0  0  0  0  0  0  0
    7.1962   -4.0427    0.0000 H   0  0  0  0  0  0  0  0  0  0  0  0
    1.4631    2.8873    0.0000 H   0  0  0  0  0  0  0  0  0  0  0  0
   10.6603   -4.0427    0.0000 H   0  0  0  0  0  0  0  0  0  0  0  0
   10.6603   -0.8027    0.0000 H   0  0  0  0  0  0  0  0  0  0  0  0
   12.4131   -4.0773    0.0000 H   0  0  0  0  0  0  0  0  0  0  0  0
    9.2573   -1.6127    0.0000 H   0  0  0  0  0  0  0  0  0  0  0  0
  1 15  1  0  0  0  0
  2 23  1  0  0  0  0
  3 19  1  0  0  0  0
  3 29  1  0  0  0  0
  4 32  2  0  0  0  0
  5  8  1  0  0  0  0
  5  9  1  0  0  0  0
  5 12  1  0  0  0  0
  6 10  1  0  0  0  0
  6 11  1  0  0  0  0
  6 13  1  0  0  0  0
  7 22  1  0  0  0  0
  7 32  1  0  0  0  0
  7 57  1  0  0  0  0
  8 10  1  0  0  0  0
  8 34  1  0  0  0  0
  8 35  1  0  0  0  0
  9 11  1  0  0  0  0
  9 36  1  0  0  0  0
  9 37  1  0  0  0  0
 10 38  1  0  0  0  0
 10 39  1  0  0  0  0
 11 40  1  0  0  0  0
 11 41  1  0  0  0  0
 12 14  1  0  0  0  0
 12 42  1  0  0  0  0
 12 43  1  0  0  0  0
 13 15  2  0  0  0  0
 13 16  1  0  0  0  0
 14 17  2  0  0  0  0
 14 18  1  0  0  0  0
 15 23  1  0  0  0  0
 16 24  2  0  0  0  0
 16 44  1  0  0  0  0
 17 19  1  0  0  0  0
 17 45  1  0  0  0  0
 18 26  2  0  0  0  0
 18 46  1  0  0  0  0
 19 27  2  0  0  0  0
 20 21  1  0  0  0  0
 20 25  1  0  0  0  0
 20 47  1  0  0  0  0
 20 48  1  0  0  0  0
 21 22  2  0  0  0  0
 21 31  1  0  0  0  0
 22 30  1  0  0  0  0
 23 28  2  0  0  0  0
 24 28  1  0  0  0  0
 24 51  1  0  0  0  0
 25 32  1  0  0  0  0
 25 49  1  0  0  0  0
 25 50  1  0  0  0  0
 26 27  1  0  0  0  0
 26 52  1  0  0  0  0
 27 53  1  0  0  0  0
 28 54  1  0  0  0  0
 29 30  2  0  0  0  0
 29 33  1  0  0  0  0
 30 55  1  0  0  0  0
 31 33  2  0  0  0  0
 31 56  1  0  0  0  0
 33 58  1  0  0  0  0
M  END
> <PUBCHEM_COMPOUND_CID>
66559506

> <PUBCHEM_COMPOUND_CANONICALIZED>
1

> <PUBCHEM_CACTVS_COMPLEXITY>
659

> <PUBCHEM_CACTVS_HBOND_ACCEPTOR>
4

> <PUBCHEM_CACTVS_HBOND_DONOR>
1

> <PUBCHEM_CACTVS_ROTATABLE_BOND>
5

> <PUBCHEM_CACTVS_SUBSKEYS>
AAADceB7MAAGAAAAAAAAAAAAAAAAAAAAAAA8eMECAAAAAACxUAAAHgIQAAAADA7BmCQwxoPABACIAiVSUACCCAAhJwAIikEObogMZjLFs5vWOCjm1BnI6Ae42bOeIAABAgICABRAAAIEBAQAKAAAAAAAAA==

> <PUBCHEM_IUPAC_OPENEYE_NAME>
7-[3-[[4-(2,3-dichlorophenyl)piperazin-1-yl]methyl]phenoxy]-3,4-dihydro-1H-quinolin-2-one

> <PUBCHEM_IUPAC_CAS_NAME>
7-[3-[[4-(2,3-dichlorophenyl)-1-piperazinyl]methyl]phenoxy]-3,4-dihydro-1H-quinolin-2-one

> <PUBCHEM_IUPAC_NAME_MARKUP>
7-[3-[[4-(2,3-dichlorophenyl)piperazin-1-yl]methyl]phenoxy]-3,4-dihydro-1<I>H</I>-quinolin-2-one

> <PUBCHEM_IUPAC_NAME>
7-[3-[[4-(2,3-dichlorophenyl)piperazin-1-yl]methyl]phenoxy]-3,4-dihydro-1H-quinolin-2-one

> <PUBCHEM_IUPAC_SYSTEMATIC_NAME>
7-[3-[[4-[2,3-bis(chloranyl)phenyl]piperazin-1-yl]methyl]phenoxy]-3,4-dihydro-1H-quinolin-2-one

> <PUBCHEM_IUPAC_TRADITIONAL_NAME>
7-[3-[[4-(2,3-dichlorophenyl)piperazino]methyl]phenoxy]-3,4-dihydrocarbostyril

> <PUBCHEM_IUPAC_INCHI>
InChI=1S/C26H25Cl2N3O2/c27-22-5-2-6-24(26(22)28)31-13-11-30(12-14-31)17-18-3-1-4-20(15-18)33-21-9-7-19-8-10-25(32)29-23(19)16-21/h1-7,9,15-16H,8,10-14,17H2,(H,29,32)

> <PUBCHEM_IUPAC_INCHIKEY>
PULGLQOWTRCVQB-UHFFFAOYSA-N

> <PUBCHEM_XLOGP3_AA>
5.3

> <PUBCHEM_EXACT_MASS>
481.1323824

> <PUBCHEM_MOLECULAR_FORMULA>
C26H25Cl2N3O2

> <PUBCHEM_MOLECULAR_WEIGHT>
482.4

> <PUBCHEM_OPENEYE_CAN_SMILES>
C1CC(=O)NC2=C1C=CC(=C2)OC3=CC=CC(=C3)CN4CCN(CC4)C5=C(C(=CC=C5)Cl)Cl

> <PUBCHEM_OPENEYE_ISO_SMILES>
C1CC(=O)NC2=C1C=CC(=C2)OC3=CC=CC(=C3)CN4CCN(CC4)C5=C(C(=CC=C5)Cl)Cl

> <PUBCHEM_CACTVS_TPSA>
44.8

> <PUBCHEM_MONOISOTOPIC_WEIGHT>
481.1323824

> <PUBCHEM_TOTAL_CHARGE>
0

> <PUBCHEM_HEAVY_ATOM_COUNT>
33

> <PUBCHEM_ATOM_DEF_STEREO_COUNT>
0

> <PUBCHEM_ATOM_UDEF_STEREO_COUNT>
0

> <PUBCHEM_BOND_DEF_STEREO_COUNT>
0

> <PUBCHEM_BOND_UDEF_STEREO_COUNT>
0

> <PUBCHEM_ISOTOPIC_ATOM_COUNT>
0

> <PUBCHEM_COMPONENT_COUNT>
1

> <PUBCHEM_CACTVS_TAUTO_COUNT>
-1

> <PUBCHEM_COORDINATE_TYPE>
1
5
255

> <PUBCHEM_BONDANNOTATIONS>
13  15  8
13  16  8
14  17  8
14  18  8
15  23  8
16  24  8
17  19  8
18  26  8
19  27  8
21  22  8
21  31  8
22  30  8
23  28  8
24  28  8
26  27  8
29  30  8
29  33  8
31  33  8

$$$$
