46232135
  -OEChem-09292322292D

 56 61  0     1  0  0  0  0  0999 V2000
    2.1374    3.2258    0.0000 Cl  0  0  0  0  0  0  0  0  0  0  0  0
    2.5932    1.2288    0.0000 O   0  0  0  0  0  0  0  0  0  0  0  0
    7.0983    3.3076    0.0000 N   0  0  3  0  0  0  0  0  0  0  0  0
    9.8374   -3.2126    0.0000 N   0  0  0  0  0  0  0  0  0  0  0  0
    6.8758    2.3326    0.0000 C   0  0  2  0  0  0  0  0  0  0  0  0
    5.9748    1.8988    0.0000 C   0  0  2  0  0  0  0  0  0  0  0  0
    7.7453    1.7592    0.0000 C   0  0  0  0  0  0  0  0  0  0  0  0
    5.8810    0.8614    0.0000 C   0  0  0  0  0  0  0  0  0  0  0  0
    7.6755    0.7199    0.0000 C   0  0  0  0  0  0  0  0  0  0  0  0
    5.0738    2.3326    0.0000 C   0  0  0  0  0  0  0  0  0  0  0  0
    6.7370    0.2680    0.0000 C   0  0  0  0  0  0  0  0  0  0  0  0
    6.4748    4.0894    0.0000 C   0  0  0  0  0  0  0  0  0  0  0  0
    4.8513    3.3076    0.0000 C   0  0  0  0  0  0  0  0  0  0  0  0
    5.4748    4.0894    0.0000 C   0  0  0  0  0  0  0  0  0  0  0  0
    6.6643   -0.8146    0.0000 C   0  0  0  0  0  0  0  0  0  0  0  0
    4.8928    0.4133    0.0000 C   0  0  0  0  0  0  0  0  0  0  0  0
    8.0732    3.5301    0.0000 C   0  0  0  0  0  0  0  0  0  0  0  0
    4.3213    1.6125    0.0000 C   0  0  0  0  0  0  0  0  0  0  0  0
    3.8608    3.6299    0.0000 C   0  0  0  0  0  0  0  0  0  0  0  0
    5.6868   -1.2853    0.0000 C   0  0  0  0  0  0  0  0  0  0  0  0
    4.7950   -0.6672    0.0000 C   0  0  0  0  0  0  0  0  0  0  0  0
    7.4927   -1.3747    0.0000 C   0  0  0  0  0  0  0  0  0  0  0  0
    3.3236    1.9118    0.0000 C   0  0  0  0  0  0  0  0  0  0  0  0
    3.0918    2.9273    0.0000 C   0  0  0  0  0  0  0  0  0  0  0  0
    7.4218   -2.3722    0.0000 C   0  0  0  0  0  0  0  0  0  0  0  0
    8.3920   -0.9374    0.0000 C   0  0  0  0  0  0  0  0  0  0  0  0
    8.2502   -2.9323    0.0000 C   0  0  0  0  0  0  0  0  0  0  0  0
    9.2204   -1.4975    0.0000 C   0  0  0  0  0  0  0  0  0  0  0  0
    9.1495   -2.4950    0.0000 C   0  0  0  0  0  0  0  0  0  0  0  0
    8.3900   -3.9165    0.0000 C   0  0  0  0  0  0  0  0  0  0  0  0
    9.3689   -4.0894    0.0000 C   0  0  0  0  0  0  0  0  0  0  0  0
    7.6646    2.6493    0.0000 H   0  0  0  0  0  0  0  0  0  0  0  0
    5.2354    1.4794    0.0000 H   0  0  0  0  0  0  0  0  0  0  0  0
    8.3477    1.6124    0.0000 H   0  0  0  0  0  0  0  0  0  0  0  0
    7.9931    2.3276    0.0000 H   0  0  0  0  0  0  0  0  0  0  0  0
    7.8450    0.1235    0.0000 H   0  0  0  0  0  0  0  0  0  0  0  0
    8.2921    0.7848    0.0000 H   0  0  0  0  0  0  0  0  0  0  0  0
    7.0334    4.3584    0.0000 H   0  0  0  0  0  0  0  0  0  0  0  0
    6.3368    4.6939    0.0000 H   0  0  0  0  0  0  0  0  0  0  0  0
    5.6128    4.6939    0.0000 H   0  0  0  0  0  0  0  0  0  0  0  0
    4.9162    4.3584    0.0000 H   0  0  0  0  0  0  0  0  0  0  0  0
    4.3873    0.7724    0.0000 H   0  0  0  0  0  0  0  0  0  0  0  0
    8.2112    2.9256    0.0000 H   0  0  0  0  0  0  0  0  0  0  0  0
    8.6777    3.6681    0.0000 H   0  0  0  0  0  0  0  0  0  0  0  0
    7.9352    4.1346    0.0000 H   0  0  0  0  0  0  0  0  0  0  0  0
    4.4662    1.0096    0.0000 H   0  0  0  0  0  0  0  0  0  0  0  0
    3.7298    4.2359    0.0000 H   0  0  0  0  0  0  0  0  0  0  0  0
    5.6380   -1.9034    0.0000 H   0  0  0  0  0  0  0  0  0  0  0  0
    4.2334   -0.9298    0.0000 H   0  0  0  0  0  0  0  0  0  0  0  0
    6.8643   -2.6434    0.0000 H   0  0  0  0  0  0  0  0  0  0  0  0
    8.4359   -0.3189    0.0000 H   0  0  0  0  0  0  0  0  0  0  0  0
    9.7780   -1.2263    0.0000 H   0  0  0  0  0  0  0  0  0  0  0  0
    2.0000    1.4093    0.0000 H   0  0  0  0  0  0  0  0  0  0  0  0
    7.9443   -4.3475    0.0000 H   0  0  0  0  0  0  0  0  0  0  0  0
   10.4516   -3.1281    0.0000 H   0  0  0  0  0  0  0  0  0  0  0  0
    9.6401   -4.6470    0.0000 H   0  0  0  0  0  0  0  0  0  0  0  0
  1 24  1  0  0  0  0
  2 23  1  0  0  0  0
  2 53  1  0  0  0  0
  3  5  1  0  0  0  0
  3 12  1  0  0  0  0
  3 17  1  0  0  0  0
  4 29  1  0  0  0  0
  4 31  1  0  0  0  0
  4 55  1  0  0  0  0
  5  6  1  0  0  0  0
  5  7  1  0  0  0  0
  5 32  1  6  0  0  0
  6  8  1  0  0  0  0
  6 10  1  0  0  0  0
  6 33  1  1  0  0  0
  7  9  1  0  0  0  0
  7 34  1  0  0  0  0
  7 35  1  0  0  0  0
  8 11  1  0  0  0  0
  8 16  2  0  0  0  0
  9 11  1  0  0  0  0
  9 36  1  0  0  0  0
  9 37  1  0  0  0  0
 10 13  1  0  0  0  0
 10 18  2  0  0  0  0
 11 15  2  0  0  0  0
 12 14  1  0  0  0  0
 12 38  1  0  0  0  0
 12 39  1  0  0  0  0
 13 14  1  0  0  0  0
 13 19  2  0  0  0  0
 14 40  1  0  0  0  0
 14 41  1  0  0  0  0
 15 20  1  0  0  0  0
 15 22  1  0  0  0  0
 16 21  1  0  0  0  0
 16 42  1  0  0  0  0
 17 43  1  0  0  0  0
 17 44  1  0  0  0  0
 17 45  1  0  0  0  0
 18 23  1  0  0  0  0
 18 46  1  0  0  0  0
 19 24  1  0  0  0  0
 19 47  1  0  0  0  0
 20 21  2  0  0  0  0
 20 48  1  0  0  0  0
 21 49  1  0  0  0  0
 22 25  2  0  0  0  0
 22 26  1  0  0  0  0
 23 24  2  0  0  0  0
 25 27  1  0  0  0  0
 25 50  1  0  0  0  0
 26 28  2  0  0  0  0
 26 51  1  0  0  0  0
 27 29  2  0  0  0  0
 27 30  1  0  0  0  0
 28 29  1  0  0  0  0
 28 52  1  0  0  0  0
 30 31  2  0  0  0  0
 30 54  1  0  0  0  0
 31 56  1  0  0  0  0
M  END
> <PUBCHEM_COMPOUND_CID>
46232135

> <PUBCHEM_COMPOUND_CANONICALIZED>
1

> <PUBCHEM_CACTVS_COMPLEXITY>
645

> <PUBCHEM_CACTVS_HBOND_ACCEPTOR>
2

> <PUBCHEM_CACTVS_HBOND_DONOR>
2

> <PUBCHEM_CACTVS_ROTATABLE_BOND>
1

> <PUBCHEM_CACTVS_SUBSKEYS>
AAADceB7IAAEAAAAAAAAAAAAAAAAAWAAAAAwYMGABYAAAFjB9AAAHgIQCAAADS7BniQ+xvPJkgCgAzRnRACCgCAxJ2AI2aA+b5gIJuLDk5OEcAhk0BHI2AeQ0PMOrAADIAASCABYAAbAACQQAAAAAAAAAA==

> <PUBCHEM_IUPAC_OPENEYE_NAME>
(6aS,13bS)-11-chloro-4-(1H-indol-5-yl)-7-methyl-5,6,6a,8,9,13b-hexahydronaphtho[1,2-a][3]benzazepin-12-ol

> <PUBCHEM_IUPAC_CAS_NAME>
(6aS,13bS)-11-chloro-4-(1H-indol-5-yl)-7-methyl-5,6,6a,8,9,13b-hexahydronaphtho[1,2-a][3]benzazepin-12-ol

> <PUBCHEM_IUPAC_NAME_MARKUP>
(6<I>a</I><I>S</I>,13<I>b</I><I>S</I>)-11-chloro-4-(1<I>H</I>-indol-5-yl)-7-methyl-5,6,6<I>a</I>,8,9,13<I>b</I>-hexahydronaphtho[1,2-a][3]benzazepin-12-ol

> <PUBCHEM_IUPAC_NAME>
(6aS,13bS)-11-chloro-4-(1H-indol-5-yl)-7-methyl-5,6,6a,8,9,13b-hexahydronaphtho[1,2-a][3]benzazepin-12-ol

> <PUBCHEM_IUPAC_SYSTEMATIC_NAME>
(6aS,13bS)-11-chloranyl-4-(1H-indol-5-yl)-7-methyl-5,6,6a,8,9,13b-hexahydronaphtho[1,2-a][3]benzazepin-12-ol

> <PUBCHEM_IUPAC_TRADITIONAL_NAME>
(6aS,13bS)-11-chloro-4-(1H-indol-5-yl)-7-methyl-5,6,6a,8,9,13b-hexahydronaphtho[1,2-a][3]benzazepin-12-ol

> <PUBCHEM_IUPAC_INCHI>
InChI=1S/C27H25ClN2O/c1-30-12-10-17-14-23(28)26(31)15-22(17)27-21-4-2-3-19(20(21)6-8-25(27)30)16-5-7-24-18(13-16)9-11-29-24/h2-5,7,9,11,13-15,25,27,29,31H,6,8,10,12H2,1H3/t25-,27+/m0/s1

> <PUBCHEM_IUPAC_INCHIKEY>
VABAVSCPQUXQLP-AHKZPQOWSA-N

> <PUBCHEM_XLOGP3_AA>
6.2

> <PUBCHEM_EXACT_MASS>
428.1655411

> <PUBCHEM_MOLECULAR_FORMULA>
C27H25ClN2O

> <PUBCHEM_MOLECULAR_WEIGHT>
429.0

> <PUBCHEM_OPENEYE_CAN_SMILES>
CN1CCC2=CC(=C(C=C2C3C1CCC4=C(C=CC=C34)C5=CC6=C(C=C5)NC=C6)O)Cl

> <PUBCHEM_OPENEYE_ISO_SMILES>
CN1CCC2=CC(=C(C=C2[C@@H]3[C@@H]1CCC4=C(C=CC=C34)C5=CC6=C(C=C5)NC=C6)O)Cl

> <PUBCHEM_CACTVS_TPSA>
39.3

> <PUBCHEM_MONOISOTOPIC_WEIGHT>
428.1655411

> <PUBCHEM_TOTAL_CHARGE>
0

> <PUBCHEM_HEAVY_ATOM_COUNT>
31

> <PUBCHEM_ATOM_DEF_STEREO_COUNT>
2

> <PUBCHEM_ATOM_UDEF_STEREO_COUNT>
0

> <PUBCHEM_BOND_DEF_STEREO_COUNT>
0

> <PUBCHEM_BOND_UDEF_STEREO_COUNT>
0

> <PUBCHEM_ISOTOPIC_ATOM_COUNT>
0

> <PUBCHEM_COMPONENT_COUNT>
1

> <PUBCHEM_CACTVS_TAUTO_COUNT>
-1

> <PUBCHEM_COORDINATE_TYPE>
1
5
255

> <PUBCHEM_BONDANNOTATIONS>
10  13  8
10  18  8
11  15  8
13  19  8
15  20  8
16  21  8
18  23  8
19  24  8
20  21  8
22  25  8
22  26  8
23  24  8
25  27  8
26  28  8
27  29  8
27  30  8
28  29  8
30  31  8
4  29  8
4  31  8
5  32  6
6  33  5
8  11  8
8  16  8

$$$$
