49781478
  -OEChem-09292322482D

 62 66  0     1  0  0  0  0  0999 V2000
    4.1922    1.9751    0.0000 S   0  0  0  0  0  0  0  0  0  0  0  0
    7.2966   -2.4585    0.0000 F   0  0  0  0  0  0  0  0  0  0  0  0
   10.4629   -5.4541    0.0000 F   0  0  0  0  0  0  0  0  0  0  0  0
    9.1812   -6.0518    0.0000 F   0  0  0  0  0  0  0  0  0  0  0  0
    9.8653   -4.1724    0.0000 F   0  0  0  0  0  0  0  0  0  0  0  0
    7.6742    3.8305    0.0000 O   0  0  0  0  0  0  0  0  0  0  0  0
    4.1922   -1.4890    0.0000 N   0  0  0  0  0  0  0  0  0  0  0  0
    5.6867    2.9456    0.0000 N   0  0  0  0  0  0  0  0  0  0  0  0
    4.2855    3.7546    0.0000 N   0  0  0  0  0  0  0  0  0  0  0  0
    5.0286    4.4238    0.0000 N   0  0  0  0  0  0  0  0  0  0  0  0
    8.0106    5.4132    0.0000 N   0  0  0  0  0  0  0  0  0  0  0  0
    3.7144   -3.4376    0.0000 C   0  0  1  0  0  0  0  0  0  0  0  0
    3.4556   -2.4716    0.0000 C   0  0  2  0  0  0  0  0  0  0  0  0
    2.3155   -3.9464    0.0000 C   0  0  0  0  0  0  0  0  0  0  0  0
    2.0567   -2.9805    0.0000 C   0  0  0  0  0  0  0  0  0  0  0  0
    4.9354   -4.3032    0.0000 C   0  0  0  0  0  0  0  0  0  0  0  0
    5.4888   -2.7828    0.0000 C   0  0  0  0  0  0  0  0  0  0  0  0
    5.7645   -3.7440    0.0000 C   0  0  0  0  0  0  0  0  0  0  0  0
    4.6922   -0.6230    0.0000 C   0  0  0  0  0  0  0  0  0  0  0  0
    6.7042   -4.0860    0.0000 C   0  0  0  0  0  0  0  0  0  0  0  0
    4.1922    0.2430    0.0000 C   0  0  0  0  0  0  0  0  0  0  0  0
    7.4702   -3.4433    0.0000 C   0  0  0  0  0  0  0  0  0  0  0  0
    6.8778   -5.0709    0.0000 C   0  0  0  0  0  0  0  0  0  0  0  0
    4.6922    1.1091    0.0000 C   0  0  0  0  0  0  0  0  0  0  0  0
    8.4099   -3.7853    0.0000 C   0  0  0  0  0  0  0  0  0  0  0  0
    7.8175   -5.4129    0.0000 C   0  0  0  0  0  0  0  0  0  0  0  0
    8.5836   -4.7701    0.0000 C   0  0  0  0  0  0  0  0  0  0  0  0
    9.5233   -5.1121    0.0000 C   0  0  0  0  0  0  0  0  0  0  0  0
    4.6922    2.8411    0.0000 C   0  0  0  0  0  0  0  0  0  0  0  0
    5.8947    3.9238    0.0000 C   0  0  0  0  0  0  0  0  0  0  0  0
    6.3559    2.2025    0.0000 C   0  0  0  0  0  0  0  0  0  0  0  0
    6.8082    4.3305    0.0000 C   0  0  0  0  0  0  0  0  0  0  0  0
    7.0161    5.3087    0.0000 C   0  0  0  0  0  0  0  0  0  0  0  0
    6.3470    6.0518    0.0000 C   0  0  0  0  0  0  0  0  0  0  0  0
    8.4174    4.4996    0.0000 C   0  0  0  0  0  0  0  0  0  0  0  0
    3.9344   -4.2586    0.0000 H   0  0  0  0  0  0  0  0  0  0  0  0
    3.2356   -1.6506    0.0000 H   0  0  0  0  0  0  0  0  0  0  0  0
    2.5104   -4.5349    0.0000 H   0  0  0  0  0  0  0  0  0  0  0  0
    1.7215   -4.1242    0.0000 H   0  0  0  0  0  0  0  0  0  0  0  0
    1.4627   -3.1582    0.0000 H   0  0  0  0  0  0  0  0  0  0  0  0
    1.8617   -2.3919    0.0000 H   0  0  0  0  0  0  0  0  0  0  0  0
    5.3413   -4.7719    0.0000 H   0  0  0  0  0  0  0  0  0  0  0  0
    4.5188   -4.7624    0.0000 H   0  0  0  0  0  0  0  0  0  0  0  0
    5.4939   -2.1628    0.0000 H   0  0  0  0  0  0  0  0  0  0  0  0
    6.1032   -2.6990    0.0000 H   0  0  0  0  0  0  0  0  0  0  0  0
    5.8400   -4.3594    0.0000 H   0  0  0  0  0  0  0  0  0  0  0  0
    5.1672   -0.2245    0.0000 H   0  0  0  0  0  0  0  0  0  0  0  0
    5.1672   -1.0215    0.0000 H   0  0  0  0  0  0  0  0  0  0  0  0
    3.7173   -0.1555    0.0000 H   0  0  0  0  0  0  0  0  0  0  0  0
    3.7173    0.6416    0.0000 H   0  0  0  0  0  0  0  0  0  0  0  0
    6.4029   -5.4694    0.0000 H   0  0  0  0  0  0  0  0  0  0  0  0
    5.1672    1.5076    0.0000 H   0  0  0  0  0  0  0  0  0  0  0  0
    5.1672    0.7105    0.0000 H   0  0  0  0  0  0  0  0  0  0  0  0
    8.8849   -3.3868    0.0000 H   0  0  0  0  0  0  0  0  0  0  0  0
    7.9252   -6.0235    0.0000 H   0  0  0  0  0  0  0  0  0  0  0  0
    6.8166    2.6174    0.0000 H   0  0  0  0  0  0  0  0  0  0  0  0
    6.7707    1.7417    0.0000 H   0  0  0  0  0  0  0  0  0  0  0  0
    5.8951    1.7876    0.0000 H   0  0  0  0  0  0  0  0  0  0  0  0
    5.8862    5.6370    0.0000 H   0  0  0  0  0  0  0  0  0  0  0  0
    5.9321    6.5126    0.0000 H   0  0  0  0  0  0  0  0  0  0  0  0
    6.8077    6.4667    0.0000 H   0  0  0  0  0  0  0  0  0  0  0  0
    9.0238    4.3707    0.0000 H   0  0  0  0  0  0  0  0  0  0  0  0
  1 24  1  0  0  0  0
  1 29  1  0  0  0  0
  2 22  1  0  0  0  0
  3 28  1  0  0  0  0
  4 28  1  0  0  0  0
  5 28  1  0  0  0  0
  6 32  1  0  0  0  0
  6 35  1  0  0  0  0
  7 12  1  0  0  0  0
  7 13  1  0  0  0  0
  7 19  1  0  0  0  0
  8 29  1  0  0  0  0
  8 30  1  0  0  0  0
  8 31  1  0  0  0  0
  9 10  1  0  0  0  0
  9 29  2  0  0  0  0
 10 30  2  0  0  0  0
 11 33  1  0  0  0  0
 11 35  2  0  0  0  0
 12 14  1  0  0  0  0
 12 16  1  0  0  0  0
 12 36  1  1  0  0  0
 13 15  1  0  0  0  0
 13 17  1  0  0  0  0
 13 37  1  6  0  0  0
 14 15  1  0  0  0  0
 14 38  1  0  0  0  0
 14 39  1  0  0  0  0
 15 40  1  0  0  0  0
 15 41  1  0  0  0  0
 16 18  1  0  0  0  0
 16 42  1  0  0  0  0
 16 43  1  0  0  0  0
 17 18  1  0  0  0  0
 17 44  1  0  0  0  0
 17 45  1  0  0  0  0
 18 20  1  0  0  0  0
 18 46  1  0  0  0  0
 19 21  1  0  0  0  0
 19 47  1  0  0  0  0
 19 48  1  0  0  0  0
 20 22  2  0  0  0  0
 20 23  1  0  0  0  0
 21 24  1  0  0  0  0
 21 49  1  0  0  0  0
 21 50  1  0  0  0  0
 22 25  1  0  0  0  0
 23 26  2  0  0  0  0
 23 51  1  0  0  0  0
 24 52  1  0  0  0  0
 24 53  1  0  0  0  0
 25 27  2  0  0  0  0
 25 54  1  0  0  0  0
 26 27  1  0  0  0  0
 26 55  1  0  0  0  0
 27 28  1  0  0  0  0
 30 32  1  0  0  0  0
 31 56  1  0  0  0  0
 31 57  1  0  0  0  0
 31 58  1  0  0  0  0
 32 33  2  0  0  0  0
 33 34  1  0  0  0  0
 34 59  1  0  0  0  0
 34 60  1  0  0  0  0
 34 61  1  0  0  0  0
 35 62  1  0  0  0  0
M  END
> <PUBCHEM_COMPOUND_CID>
49781478

> <PUBCHEM_COMPOUND_CANONICALIZED>
1

> <PUBCHEM_CACTVS_COMPLEXITY>
706

> <PUBCHEM_CACTVS_HBOND_ACCEPTOR>
10

> <PUBCHEM_CACTVS_HBOND_DONOR>
0

> <PUBCHEM_CACTVS_ROTATABLE_BOND>
7

> <PUBCHEM_CACTVS_SUBSKEYS>
AAADceB7ocBAAAAAAAAAAAAAAAAAAWLFgAA8QAAABgAAAAAB8AAAHwQIAAAADSzF3x63lJcMFEiqA6Zz9ASS2Ct7YLAd2CG9RJiOKCLk2TCNIChgjALYiAcQgMAOwAAAAAAAAACAAAAAAAAAAAAAAAAAAA==

> <PUBCHEM_IUPAC_OPENEYE_NAME>
5-[5-[3-[(1S,5R)-3-[2-fluoro-4-(trifluoromethyl)phenyl]-8-azabicyclo[3.2.1]octan-8-yl]propylsulfanyl]-4-methyl-1,2,4-triazol-3-yl]-4-methyl-oxazole

> <PUBCHEM_IUPAC_CAS_NAME>
5-[5-[3-[(1S,5R)-3-[2-fluoro-4-(trifluoromethyl)phenyl]-8-azabicyclo[3.2.1]octan-8-yl]propylthio]-4-methyl-1,2,4-triazol-3-yl]-4-methyloxazole

> <PUBCHEM_IUPAC_NAME_MARKUP>
5-[5-[3-[(1<I>S</I>,5<I>R</I>)-3-[2-fluoro-4-(trifluoromethyl)phenyl]-8-azabicyclo[3.2.1]octan-8-yl]propylsulfanyl]-4-methyl-1,2,4-triazol-3-yl]-4-methyl-1,3-oxazole

> <PUBCHEM_IUPAC_NAME>
5-[5-[3-[(1S,5R)-3-[2-fluoro-4-(trifluoromethyl)phenyl]-8-azabicyclo[3.2.1]octan-8-yl]propylsulfanyl]-4-methyl-1,2,4-triazol-3-yl]-4-methyl-1,3-oxazole

> <PUBCHEM_IUPAC_SYSTEMATIC_NAME>
5-[5-[3-[(1S,5R)-3-[2-fluoranyl-4-(trifluoromethyl)phenyl]-8-azabicyclo[3.2.1]octan-8-yl]propylsulfanyl]-4-methyl-1,2,4-triazol-3-yl]-4-methyl-1,3-oxazole

> <PUBCHEM_IUPAC_TRADITIONAL_NAME>
5-[5-[3-[(1S,5R)-3-[2-fluoro-4-(trifluoromethyl)phenyl]-8-azabicyclo[3.2.1]octan-8-yl]propylthio]-4-methyl-1,2,4-triazol-3-yl]-4-methyl-oxazole

> <PUBCHEM_IUPAC_INCHI>
InChI=1S/C24H27F4N5OS/c1-14-21(34-13-29-14)22-30-31-23(32(22)2)35-9-3-8-33-17-5-6-18(33)11-15(10-17)19-7-4-16(12-20(19)25)24(26,27)28/h4,7,12-13,15,17-18H,3,5-6,8-11H2,1-2H3/t15?,17-,18+

> <PUBCHEM_IUPAC_INCHIKEY>
NWCMUBVTFZOFKO-ZNXRZULTSA-N

> <PUBCHEM_XLOGP3_AA>
5

> <PUBCHEM_EXACT_MASS>
509.18724432

> <PUBCHEM_MOLECULAR_FORMULA>
C24H27F4N5OS

> <PUBCHEM_MOLECULAR_WEIGHT>
509.6

> <PUBCHEM_OPENEYE_CAN_SMILES>
CC1=C(OC=N1)C2=NN=C(N2C)SCCCN3C4CCC3CC(C4)C5=C(C=C(C=C5)C(F)(F)F)F

> <PUBCHEM_OPENEYE_ISO_SMILES>
CC1=C(OC=N1)C2=NN=C(N2C)SCCCN3[C@@H]4CC[C@H]3CC(C4)C5=C(C=C(C=C5)C(F)(F)F)F

> <PUBCHEM_CACTVS_TPSA>
85.3

> <PUBCHEM_MONOISOTOPIC_WEIGHT>
509.18724432

> <PUBCHEM_TOTAL_CHARGE>
0

> <PUBCHEM_HEAVY_ATOM_COUNT>
35

> <PUBCHEM_ATOM_DEF_STEREO_COUNT>
2

> <PUBCHEM_ATOM_UDEF_STEREO_COUNT>
0

> <PUBCHEM_BOND_DEF_STEREO_COUNT>
0

> <PUBCHEM_BOND_UDEF_STEREO_COUNT>
0

> <PUBCHEM_ISOTOPIC_ATOM_COUNT>
0

> <PUBCHEM_COMPONENT_COUNT>
1

> <PUBCHEM_CACTVS_TAUTO_COUNT>
-1

> <PUBCHEM_COORDINATE_TYPE>
1
5
255

> <PUBCHEM_BONDANNOTATIONS>
10  30  8
11  33  8
11  35  8
12  36  5
13  37  6
20  22  8
20  23  8
22  25  8
23  26  8
25  27  8
26  27  8
32  33  8
6  32  8
6  35  8
8  29  8
8  30  8
9  10  8
9  29  8

$$$$
