165112410
  -OEChem-09292322452D

 69 73  0     1  0  0  0  0  0999 V2000
   14.1413   -0.8744    0.0000 S   0  0  0  0  0  0  0  0  0  0  0  0
   17.7376   -3.3932    0.0000 F   0  0  0  0  0  0  0  0  0  0  0  0
   17.7289   -1.6612    0.0000 F   0  0  0  0  0  0  0  0  0  0  0  0
    5.4956    0.8759    0.0000 O   0  0  0  0  0  0  0  0  0  0  0  0
   15.7289   -1.6712    0.0000 O   0  0  0  0  0  0  0  0  0  0  0  0
   11.0085   -1.6947    0.0000 N   0  0  3  0  0  0  0  0  0  0  0  0
    5.5043   -0.8561    0.0000 N   0  0  0  0  0  0  0  0  0  0  0  0
   14.1494   -2.4838    0.0000 N   0  0  0  0  0  0  0  0  0  0  0  0
    3.4957    0.8659    0.0000 N   0  0  0  0  0  0  0  0  0  0  0  0
    2.1862    1.8056    0.0000 N   0  0  0  0  0  0  0  0  0  0  0  0
    8.5042   -0.8412    0.0000 C   0  0  0  0  0  0  0  0  0  0  0  0
    7.9999    0.0224    0.0000 C   0  0  0  0  0  0  0  0  0  0  0  0
    8.0086   -1.7097    0.0000 C   0  0  0  0  0  0  0  0  0  0  0  0
    6.5043   -0.8511    0.0000 C   0  0  0  0  0  0  0  0  0  0  0  0
    6.9999    0.0174    0.0000 C   0  0  0  0  0  0  0  0  0  0  0  0
    7.0086   -1.7147    0.0000 C   0  0  0  0  0  0  0  0  0  0  0  0
    9.5042   -0.8362    0.0000 C   0  0  0  0  0  0  0  0  0  0  0  0
   10.0085   -1.6997    0.0000 C   0  0  0  0  0  0  0  0  0  0  0  0
   11.4379   -0.7916    0.0000 C   0  0  0  0  0  0  0  0  0  0  0  0
   11.4469   -2.5935    0.0000 C   0  0  0  0  0  0  0  0  0  0  0  0
   12.4117   -0.5642    0.0000 C   0  0  0  0  0  0  0  0  0  0  0  0
   12.4229   -2.8112    0.0000 C   0  0  0  0  0  0  0  0  0  0  0  0
    5.0000    0.0074    0.0000 C   0  0  0  0  0  0  0  0  0  0  0  0
   13.1966   -1.1838    0.0000 C   0  0  0  0  0  0  0  0  0  0  0  0
   13.2016   -2.1838    0.0000 C   0  0  0  0  0  0  0  0  0  0  0  0
    4.0000    0.0024    0.0000 C   0  0  0  0  0  0  0  0  0  0  0  0
   14.7290   -1.6762    0.0000 C   0  0  0  0  0  0  0  0  0  0  0  0
    3.5043   -0.8661    0.0000 C   0  0  0  0  0  0  0  0  0  0  0  0
    2.4957    0.8609    0.0000 C   0  0  0  0  0  0  0  0  0  0  0  0
    3.7957    1.8137    0.0000 C   0  0  0  0  0  0  0  0  0  0  0  0
    2.5043   -0.8711    0.0000 C   0  0  0  0  0  0  0  0  0  0  0  0
    2.0000   -0.0076    0.0000 C   0  0  0  0  0  0  0  0  0  0  0  0
    2.9880    2.3932    0.0000 C   0  0  0  0  0  0  0  0  0  0  0  0
   16.2333   -2.5347    0.0000 C   0  0  0  0  0  0  0  0  0  0  0  0
    2.9830    3.3932    0.0000 C   0  0  0  0  0  0  0  0  0  0  0  0
   17.2332   -2.5297    0.0000 C   0  0  0  0  0  0  0  0  0  0  0  0
    8.8169   -1.3766    0.0000 H   0  0  0  0  0  0  0  0  0  0  0  0
    8.5815    0.2373    0.0000 H   0  0  0  0  0  0  0  0  0  0  0  0
    7.8892    0.6324    0.0000 H   0  0  0  0  0  0  0  0  0  0  0  0
    7.9040   -2.3208    0.0000 H   0  0  0  0  0  0  0  0  0  0  0  0
    8.5922   -1.9188    0.0000 H   0  0  0  0  0  0  0  0  0  0  0  0
    6.1916   -0.3158    0.0000 H   0  0  0  0  0  0  0  0  0  0  0  0
    7.1046    0.6285    0.0000 H   0  0  0  0  0  0  0  0  0  0  0  0
    6.4163    0.2265    0.0000 H   0  0  0  0  0  0  0  0  0  0  0  0
    6.4270   -1.9296    0.0000 H   0  0  0  0  0  0  0  0  0  0  0  0
    7.1193   -2.3247    0.0000 H   0  0  0  0  0  0  0  0  0  0  0  0
   10.0858   -0.6212    0.0000 H   0  0  0  0  0  0  0  0  0  0  0  0
    9.3935   -0.2261    0.0000 H   0  0  0  0  0  0  0  0  0  0  0  0
    9.4270   -1.9147    0.0000 H   0  0  0  0  0  0  0  0  0  0  0  0
   10.1192   -2.3097    0.0000 H   0  0  0  0  0  0  0  0  0  0  0  0
    5.1970   -1.3946    0.0000 H   0  0  0  0  0  0  0  0  0  0  0  0
   11.4348   -0.1716    0.0000 H   0  0  0  0  0  0  0  0  0  0  0  0
   10.8328   -0.6566    0.0000 H   0  0  0  0  0  0  0  0  0  0  0  0
   10.8431   -2.7345    0.0000 H   0  0  0  0  0  0  0  0  0  0  0  0
   11.4500   -3.2135    0.0000 H   0  0  0  0  0  0  0  0  0  0  0  0
   12.8945   -0.1752    0.0000 H   0  0  0  0  0  0  0  0  0  0  0  0
   12.1399   -0.0070    0.0000 H   0  0  0  0  0  0  0  0  0  0  0  0
   12.1567   -3.3711    0.0000 H   0  0  0  0  0  0  0  0  0  0  0  0
   12.9096   -3.1953    0.0000 H   0  0  0  0  0  0  0  0  0  0  0  0
    3.8170   -1.4015    0.0000 H   0  0  0  0  0  0  0  0  0  0  0  0
    4.3840    2.0092    0.0000 H   0  0  0  0  0  0  0  0  0  0  0  0
    2.1970   -1.4096    0.0000 H   0  0  0  0  0  0  0  0  0  0  0  0
    1.3800   -0.0107    0.0000 H   0  0  0  0  0  0  0  0  0  0  0  0
   15.6517   -2.7496    0.0000 H   0  0  0  0  0  0  0  0  0  0  0  0
   16.3440   -3.1447    0.0000 H   0  0  0  0  0  0  0  0  0  0  0  0
    3.6030    3.3963    0.0000 H   0  0  0  0  0  0  0  0  0  0  0  0
    2.9800    4.0132    0.0000 H   0  0  0  0  0  0  0  0  0  0  0  0
    2.3631    3.3901    0.0000 H   0  0  0  0  0  0  0  0  0  0  0  0
   16.9206   -1.9943    0.0000 H   0  0  0  0  0  0  0  0  0  0  0  0
  1 24  1  0  0  0  0
  1 27  1  0  0  0  0
  2 36  1  0  0  0  0
  3 36  1  0  0  0  0
  4 23  2  0  0  0  0
  5 27  1  0  0  0  0
  5 34  1  0  0  0  0
  6 18  1  0  0  0  0
  6 19  1  0  0  0  0
  6 20  1  0  0  0  0
  7 14  1  0  0  0  0
  7 23  1  0  0  0  0
  7 51  1  0  0  0  0
  8 25  1  0  0  0  0
  8 27  2  0  0  0  0
  9 26  1  0  0  0  0
  9 29  1  0  0  0  0
  9 30  1  0  0  0  0
 10 29  2  0  0  0  0
 10 33  1  0  0  0  0
 11 12  1  0  0  0  0
 11 13  1  0  0  0  0
 11 17  1  0  0  0  0
 11 37  1  0  0  0  0
 12 15  1  0  0  0  0
 12 38  1  0  0  0  0
 12 39  1  0  0  0  0
 13 16  1  0  0  0  0
 13 40  1  0  0  0  0
 13 41  1  0  0  0  0
 14 15  1  0  0  0  0
 14 16  1  0  0  0  0
 14 42  1  0  0  0  0
 15 43  1  0  0  0  0
 15 44  1  0  0  0  0
 16 45  1  0  0  0  0
 16 46  1  0  0  0  0
 17 18  1  0  0  0  0
 17 47  1  0  0  0  0
 17 48  1  0  0  0  0
 18 49  1  0  0  0  0
 18 50  1  0  0  0  0
 19 21  1  0  0  0  0
 19 52  1  0  0  0  0
 19 53  1  0  0  0  0
 20 22  1  0  0  0  0
 20 54  1  0  0  0  0
 20 55  1  0  0  0  0
 21 24  1  0  0  0  0
 21 56  1  0  0  0  0
 21 57  1  0  0  0  0
 22 25  1  0  0  0  0
 22 58  1  0  0  0  0
 22 59  1  0  0  0  0
 23 26  1  0  0  0  0
 24 25  2  0  0  0  0
 26 28  2  0  0  0  0
 28 31  1  0  0  0  0
 28 60  1  0  0  0  0
 29 32  1  0  0  0  0
 30 33  2  0  0  0  0
 30 61  1  0  0  0  0
 31 32  2  0  0  0  0
 31 62  1  0  0  0  0
 32 63  1  0  0  0  0
 33 35  1  0  0  0  0
 34 36  1  0  0  0  0
 34 64  1  0  0  0  0
 34 65  1  0  0  0  0
 35 66  1  0  0  0  0
 35 67  1  0  0  0  0
 35 68  1  0  0  0  0
 36 69  1  0  0  0  0
M  END
> <PUBCHEM_COMPOUND_CID>
165112410

> <PUBCHEM_COMPOUND_CANONICALIZED>
1

> <PUBCHEM_CACTVS_COMPLEXITY>
728

> <PUBCHEM_CACTVS_HBOND_ACCEPTOR>
8

> <PUBCHEM_CACTVS_HBOND_DONOR>
1

> <PUBCHEM_CACTVS_ROTATABLE_BOND>
8

> <PUBCHEM_CACTVS_SUBSKEYS>
AAADcfB7sYBAAAAAAAAAAAAAAAAAAWLAAAA8QAAABYAAAFix+AAAHwQQAAAADSjh1xY/sZ/MHAisATd3dACC8K13GrgJ2LW4dNiIaPLg3bGcIQholgLIyacYiIAOAAAAAAAAAAAQAAAAAAAAAAAAAAAAAA==

> <PUBCHEM_IUPAC_OPENEYE_NAME>
N-[4-[2-[2-(2,2-difluoroethoxy)-4,5,7,8-tetrahydrothiazolo[4,5-d]azepin-6-yl]ethyl]cyclohexyl]-2-methyl-imidazo[1,2-a]pyridine-5-carboxamide

> <PUBCHEM_IUPAC_CAS_NAME>
N-[4-[2-[2-(2,2-difluoroethoxy)-4,5,7,8-tetrahydrothiazolo[4,5-d]azepin-6-yl]ethyl]cyclohexyl]-2-methyl-5-imidazo[1,2-a]pyridinecarboxamide

> <PUBCHEM_IUPAC_NAME_MARKUP>
<I>N</I>-[4-[2-[2-(2,2-difluoroethoxy)-4,5,7,8-tetrahydro-[1,3]thiazolo[4,5-d]azepin-6-yl]ethyl]cyclohexyl]-2-methylimidazo[1,2-a]pyridine-5-carboxamide

> <PUBCHEM_IUPAC_NAME>
N-[4-[2-[2-(2,2-difluoroethoxy)-4,5,7,8-tetrahydro-[1,3]thiazolo[4,5-d]azepin-6-yl]ethyl]cyclohexyl]-2-methylimidazo[1,2-a]pyridine-5-carboxamide

> <PUBCHEM_IUPAC_SYSTEMATIC_NAME>
N-[4-[2-[2-[2,2-bis(fluoranyl)ethoxy]-4,5,7,8-tetrahydro-[1,3]thiazolo[4,5-d]azepin-6-yl]ethyl]cyclohexyl]-2-methyl-imidazo[1,2-a]pyridine-5-carboxamide

> <PUBCHEM_IUPAC_TRADITIONAL_NAME>
N-[4-[2-[2-(2,2-difluoroethoxy)-4,5,7,8-tetrahydrothiazol[4,5-d]azepin-6-yl]ethyl]cyclohexyl]-2-methyl-imidazo[1,2-a]pyridine-5-carboxamide

> <PUBCHEM_IUPAC_INCHI>
InChI=1S/C26H33F2N5O2S/c1-17-15-33-21(3-2-4-24(33)29-17)25(34)30-19-7-5-18(6-8-19)9-12-32-13-10-20-22(11-14-32)36-26(31-20)35-16-23(27)28/h2-4,15,18-19,23H,5-14,16H2,1H3,(H,30,34)

> <PUBCHEM_IUPAC_INCHIKEY>
FGVZAUNCIJVVFY-UHFFFAOYSA-N

> <PUBCHEM_XLOGP3_AA>
5.9

> <PUBCHEM_EXACT_MASS>
517.23230281

> <PUBCHEM_MOLECULAR_FORMULA>
C26H33F2N5O2S

> <PUBCHEM_MOLECULAR_WEIGHT>
517.6

> <PUBCHEM_OPENEYE_CAN_SMILES>
CC1=CN2C(=N1)C=CC=C2C(=O)NC3CCC(CC3)CCN4CCC5=C(CC4)SC(=N5)OCC(F)F

> <PUBCHEM_OPENEYE_ISO_SMILES>
CC1=CN2C(=N1)C=CC=C2C(=O)NC3CCC(CC3)CCN4CCC5=C(CC4)SC(=N5)OCC(F)F

> <PUBCHEM_CACTVS_TPSA>
100

> <PUBCHEM_MONOISOTOPIC_WEIGHT>
517.23230281

> <PUBCHEM_TOTAL_CHARGE>
0

> <PUBCHEM_HEAVY_ATOM_COUNT>
36

> <PUBCHEM_ATOM_DEF_STEREO_COUNT>
0

> <PUBCHEM_ATOM_UDEF_STEREO_COUNT>
0

> <PUBCHEM_BOND_DEF_STEREO_COUNT>
0

> <PUBCHEM_BOND_UDEF_STEREO_COUNT>
0

> <PUBCHEM_ISOTOPIC_ATOM_COUNT>
0

> <PUBCHEM_COMPONENT_COUNT>
1

> <PUBCHEM_CACTVS_TAUTO_COUNT>
-1

> <PUBCHEM_COORDINATE_TYPE>
1
5
255

> <PUBCHEM_BONDANNOTATIONS>
1  24  8
1  27  8
10  29  8
10  33  8
24  25  8
26  28  8
28  31  8
29  32  8
30  33  8
31  32  8
8  25  8
8  27  8
9  26  8
9  29  8
9  30  8

$$$$
