148417349
  -OEChem-09292322062D

 61 65  0     1  0  0  0  0  0999 V2000
    9.7225    1.5932    0.0000 S   0  0  0  0  0  0  0  0  0  0  0  0
    2.0000   -4.6323    0.0000 F   0  0  0  0  0  0  0  0  0  0  0  0
    9.8046    4.6323    0.0000 O   0  0  0  0  0  0  0  0  0  0  0  0
    5.5443   -4.4370    0.0000 O   0  0  0  0  0  0  0  0  0  0  0  0
   10.4668    2.2610    0.0000 O   0  0  0  0  0  0  0  0  0  0  0  0
    8.9782    0.9254    0.0000 O   0  0  0  0  0  0  0  0  0  0  0  0
    6.4763    0.0240    0.0000 N   0  0  0  0  0  0  0  0  0  0  0  0
    9.0546    2.3375    0.0000 N   0  0  3  0  0  0  0  0  0  0  0  0
    6.1279   -3.6323    0.0000 N   0  0  0  0  0  0  0  0  0  0  0  0
    5.8550   -1.8770    0.0000 C   0  0  0  0  0  0  0  0  0  0  0  0
    5.1871   -1.1327    0.0000 C   0  0  0  0  0  0  0  0  0  0  0  0
    6.8335   -1.6708    0.0000 C   0  0  0  0  0  0  0  0  0  0  0  0
    5.4978   -0.1822    0.0000 C   0  0  0  0  0  0  0  0  0  0  0  0
    7.1441   -0.7203    0.0000 C   0  0  0  0  0  0  0  0  0  0  0  0
    9.3653    3.2880    0.0000 C   0  0  0  0  0  0  0  0  0  0  0  0
    6.7870    0.9745    0.0000 C   0  0  0  0  0  0  0  0  0  0  0  0
    7.7654    1.1808    0.0000 C   0  0  0  0  0  0  0  0  0  0  0  0
    8.0761    2.1313    0.0000 C   0  0  0  0  0  0  0  0  0  0  0  0
    8.9128    4.1798    0.0000 C   0  0  0  0  0  0  0  0  0  0  0  0
   10.2571    3.7405    0.0000 C   0  0  0  0  0  0  0  0  0  0  0  0
    5.5443   -2.8275    0.0000 C   0  0  0  0  0  0  0  0  0  0  0  0
    4.5981   -3.1323    0.0000 C   0  0  0  0  0  0  0  0  0  0  0  0
   10.3903    0.8489    0.0000 C   0  0  0  0  0  0  0  0  0  0  0  0
    4.5981   -4.1323    0.0000 C   0  0  0  0  0  0  0  0  0  0  0  0
    3.7320   -2.6323    0.0000 C   0  0  0  0  0  0  0  0  0  0  0  0
   11.3688    1.0551    0.0000 C   0  0  0  0  0  0  0  0  0  0  0  0
   10.0796   -0.1016    0.0000 C   0  0  0  0  0  0  0  0  0  0  0  0
    3.7320   -4.6323    0.0000 C   0  0  0  0  0  0  0  0  0  0  0  0
    2.8660   -3.1323    0.0000 C   0  0  0  0  0  0  0  0  0  0  0  0
    2.8660   -4.1323    0.0000 C   0  0  0  0  0  0  0  0  0  0  0  0
   12.0367    0.3108    0.0000 C   0  0  0  0  0  0  0  0  0  0  0  0
   10.7475   -0.8459    0.0000 C   0  0  0  0  0  0  0  0  0  0  0  0
   11.7260   -0.6397    0.0000 C   0  0  0  0  0  0  0  0  0  0  0  0
    6.2690   -2.3385    0.0000 H   0  0  0  0  0  0  0  0  0  0  0  0
    4.6402   -0.8407    0.0000 H   0  0  0  0  0  0  0  0  0  0  0  0
    4.8046   -1.6206    0.0000 H   0  0  0  0  0  0  0  0  0  0  0  0
    6.8540   -2.2904    0.0000 H   0  0  0  0  0  0  0  0  0  0  0  0
    7.4473   -1.7581    0.0000 H   0  0  0  0  0  0  0  0  0  0  0  0
    5.4772    0.4375    0.0000 H   0  0  0  0  0  0  0  0  0  0  0  0
    4.8840   -0.0948    0.0000 H   0  0  0  0  0  0  0  0  0  0  0  0
    7.6910   -1.0123    0.0000 H   0  0  0  0  0  0  0  0  0  0  0  0
    7.5267   -0.2324    0.0000 H   0  0  0  0  0  0  0  0  0  0  0  0
    9.8360    2.8846    0.0000 H   0  0  0  0  0  0  0  0  0  0  0  0
    6.7664    1.5942    0.0000 H   0  0  0  0  0  0  0  0  0  0  0  0
    6.1731    1.0619    0.0000 H   0  0  0  0  0  0  0  0  0  0  0  0
    7.7860    0.5611    0.0000 H   0  0  0  0  0  0  0  0  0  0  0  0
    8.3793    1.0934    0.0000 H   0  0  0  0  0  0  0  0  0  0  0  0
    8.0556    2.7510    0.0000 H   0  0  0  0  0  0  0  0  0  0  0  0
    7.4623    2.2186    0.0000 H   0  0  0  0  0  0  0  0  0  0  0  0
    8.6323    4.7327    0.0000 H   0  0  0  0  0  0  0  0  0  0  0  0
    8.3599    3.8993    0.0000 H   0  0  0  0  0  0  0  0  0  0  0  0
   10.5376    3.1876    0.0000 H   0  0  0  0  0  0  0  0  0  0  0  0
   10.8100    4.0210    0.0000 H   0  0  0  0  0  0  0  0  0  0  0  0
    3.7320   -2.0123    0.0000 H   0  0  0  0  0  0  0  0  0  0  0  0
   11.5614    1.6444    0.0000 H   0  0  0  0  0  0  0  0  0  0  0  0
    9.4730   -0.2295    0.0000 H   0  0  0  0  0  0  0  0  0  0  0  0
    3.7320   -5.2523    0.0000 H   0  0  0  0  0  0  0  0  0  0  0  0
    2.3291   -2.8223    0.0000 H   0  0  0  0  0  0  0  0  0  0  0  0
   12.6433    0.4387    0.0000 H   0  0  0  0  0  0  0  0  0  0  0  0
   10.5549   -1.4352    0.0000 H   0  0  0  0  0  0  0  0  0  0  0  0
   12.1401   -1.1012    0.0000 H   0  0  0  0  0  0  0  0  0  0  0  0
  1  5  2  0  0  0  0
  1  6  2  0  0  0  0
  1  8  1  0  0  0  0
  1 23  1  0  0  0  0
  2 30  1  0  0  0  0
  3 19  1  0  0  0  0
  3 20  1  0  0  0  0
  4  9  1  0  0  0  0
  4 24  1  0  0  0  0
  7 13  1  0  0  0  0
  7 14  1  0  0  0  0
  7 16  1  0  0  0  0
  8 15  1  0  0  0  0
  8 18  1  0  0  0  0
  9 21  2  0  0  0  0
 10 11  1  0  0  0  0
 10 12  1  0  0  0  0
 10 21  1  0  0  0  0
 10 34  1  0  0  0  0
 11 13  1  0  0  0  0
 11 35  1  0  0  0  0
 11 36  1  0  0  0  0
 12 14  1  0  0  0  0
 12 37  1  0  0  0  0
 12 38  1  0  0  0  0
 13 39  1  0  0  0  0
 13 40  1  0  0  0  0
 14 41  1  0  0  0  0
 14 42  1  0  0  0  0
 15 19  1  0  0  0  0
 15 20  1  0  0  0  0
 15 43  1  0  0  0  0
 16 17  1  0  0  0  0
 16 44  1  0  0  0  0
 16 45  1  0  0  0  0
 17 18  1  0  0  0  0
 17 46  1  0  0  0  0
 17 47  1  0  0  0  0
 18 48  1  0  0  0  0
 18 49  1  0  0  0  0
 19 50  1  0  0  0  0
 19 51  1  0  0  0  0
 20 52  1  0  0  0  0
 20 53  1  0  0  0  0
 21 22  1  0  0  0  0
 22 24  2  0  0  0  0
 22 25  1  0  0  0  0
 23 26  2  0  0  0  0
 23 27  1  0  0  0  0
 24 28  1  0  0  0  0
 25 29  2  0  0  0  0
 25 54  1  0  0  0  0
 26 31  1  0  0  0  0
 26 55  1  0  0  0  0
 27 32  2  0  0  0  0
 27 56  1  0  0  0  0
 28 30  2  0  0  0  0
 28 57  1  0  0  0  0
 29 30  1  0  0  0  0
 29 58  1  0  0  0  0
 31 33  2  0  0  0  0
 31 59  1  0  0  0  0
 32 33  1  0  0  0  0
 32 60  1  0  0  0  0
 33 61  1  0  0  0  0
M  END
> <PUBCHEM_COMPOUND_CID>
148417349

> <PUBCHEM_COMPOUND_CANONICALIZED>
1

> <PUBCHEM_CACTVS_COMPLEXITY>
733

> <PUBCHEM_CACTVS_HBOND_ACCEPTOR>
8

> <PUBCHEM_CACTVS_HBOND_DONOR>
0

> <PUBCHEM_CACTVS_ROTATABLE_BOND>
8

> <PUBCHEM_CACTVS_SUBSKEYS>
AAADceB7OQBAAAAAAAAAAAAAAABIAWAAAAA8YIAAAAAAAFgB9AAAHwQEQAAADSzh3g4wh9MQBAKpA6RyQnDCABAkIAAomDk+TNoKJrqA1ZOFMYBmwBmYyceYyOCOAAAAAAAIAAAAAAAAABAAAAAAAAAAAA==

> <PUBCHEM_IUPAC_OPENEYE_NAME>
N-[3-[4-(6-fluoro-1,2-benzoxazol-3-yl)-1-piperidyl]propyl]-N-(oxetan-3-yl)benzenesulfonamide

> <PUBCHEM_IUPAC_CAS_NAME>
N-[3-[4-(6-fluoro-1,2-benzoxazol-3-yl)-1-piperidinyl]propyl]-N-(3-oxetanyl)benzenesulfonamide

> <PUBCHEM_IUPAC_NAME_MARKUP>
<I>N</I>-[3-[4-(6-fluoro-1,2-benzoxazol-3-yl)piperidin-1-yl]propyl]-<I>N</I>-(oxetan-3-yl)benzenesulfonamide

> <PUBCHEM_IUPAC_NAME>
N-[3-[4-(6-fluoro-1,2-benzoxazol-3-yl)piperidin-1-yl]propyl]-N-(oxetan-3-yl)benzenesulfonamide

> <PUBCHEM_IUPAC_SYSTEMATIC_NAME>
N-[3-[4-(6-fluoranyl-1,2-benzoxazol-3-yl)piperidin-1-yl]propyl]-N-(oxetan-3-yl)benzenesulfonamide

> <PUBCHEM_IUPAC_TRADITIONAL_NAME>
N-[3-[4-(6-fluoroindoxazen-3-yl)piperidino]propyl]-N-(oxetan-3-yl)benzenesulfonamide

> <PUBCHEM_IUPAC_INCHI>
InChI=1S/C24H28FN3O4S/c25-19-7-8-22-23(15-19)32-26-24(22)18-9-13-27(14-10-18)11-4-12-28(20-16-31-17-20)33(29,30)21-5-2-1-3-6-21/h1-3,5-8,15,18,20H,4,9-14,16-17H2

> <PUBCHEM_IUPAC_INCHIKEY>
LUXCAJUFWQQFRI-UHFFFAOYSA-N

> <PUBCHEM_XLOGP3_AA>
3.3

> <PUBCHEM_EXACT_MASS>
473.17845572

> <PUBCHEM_MOLECULAR_FORMULA>
C24H28FN3O4S

> <PUBCHEM_MOLECULAR_WEIGHT>
473.6

> <PUBCHEM_OPENEYE_CAN_SMILES>
C1CN(CCC1C2=NOC3=C2C=CC(=C3)F)CCCN(C4COC4)S(=O)(=O)C5=CC=CC=C5

> <PUBCHEM_OPENEYE_ISO_SMILES>
C1CN(CCC1C2=NOC3=C2C=CC(=C3)F)CCCN(C4COC4)S(=O)(=O)C5=CC=CC=C5

> <PUBCHEM_CACTVS_TPSA>
84.3

> <PUBCHEM_MONOISOTOPIC_WEIGHT>
473.17845572

> <PUBCHEM_TOTAL_CHARGE>
0

> <PUBCHEM_HEAVY_ATOM_COUNT>
33

> <PUBCHEM_ATOM_DEF_STEREO_COUNT>
0

> <PUBCHEM_ATOM_UDEF_STEREO_COUNT>
0

> <PUBCHEM_BOND_DEF_STEREO_COUNT>
0

> <PUBCHEM_BOND_UDEF_STEREO_COUNT>
0

> <PUBCHEM_ISOTOPIC_ATOM_COUNT>
0

> <PUBCHEM_COMPONENT_COUNT>
1

> <PUBCHEM_CACTVS_TAUTO_COUNT>
-1

> <PUBCHEM_COORDINATE_TYPE>
1
5
255

> <PUBCHEM_BONDANNOTATIONS>
21  22  8
22  24  8
22  25  8
23  26  8
23  27  8
24  28  8
25  29  8
26  31  8
27  32  8
28  30  8
29  30  8
31  33  8
32  33  8
4  24  8
4  9  8
9  21  8

$$$$
