155521049
  -OEChem-09292322412D

 50 53  0     1  0  0  0  0  0999 V2000
    2.8660   -1.4941    0.0000 O   0  0  0  0  0  0  0  0  0  0  0  0
   11.5670    2.9376    0.0000 O   0  0  0  0  0  0  0  0  0  0  0  0
    7.3423    1.1622    0.0000 N   0  0  3  0  0  0  0  0  0  0  0  0
    6.4103   -3.2988    0.0000 N   0  0  0  0  0  0  0  0  0  0  0  0
    6.3638    0.9560    0.0000 C   0  0  0  0  0  0  0  0  0  0  0  0
    6.0531    0.0055    0.0000 C   0  0  0  0  0  0  0  0  0  0  0  0
    6.7210   -0.7388    0.0000 C   0  0  0  0  0  0  0  0  0  0  0  0
    8.0102    0.4179    0.0000 C   0  0  0  0  0  0  0  0  0  0  0  0
    7.6995   -0.5326    0.0000 C   0  0  0  0  0  0  0  0  0  0  0  0
    6.4103   -1.6893    0.0000 C   0  0  0  0  0  0  0  0  0  0  0  0
    7.6530    2.1127    0.0000 C   0  0  0  0  0  0  0  0  0  0  0  0
    5.4641   -1.9941    0.0000 C   0  0  0  0  0  0  0  0  0  0  0  0
    5.4641   -2.9941    0.0000 C   0  0  0  0  0  0  0  0  0  0  0  0
    6.9939   -2.4941    0.0000 C   0  0  0  0  0  0  0  0  0  0  0  0
    8.6315    2.3190    0.0000 C   0  0  0  0  0  0  0  0  0  0  0  0
    4.5981   -1.4941    0.0000 C   0  0  0  0  0  0  0  0  0  0  0  0
    4.5981   -3.4941    0.0000 C   0  0  0  0  0  0  0  0  0  0  0  0
    8.9421    3.2695    0.0000 C   0  0  0  0  0  0  0  0  0  0  0  0
    9.2993    1.5747    0.0000 C   0  0  0  0  0  0  0  0  0  0  0  0
    3.7320   -1.9941    0.0000 C   0  0  0  0  0  0  0  0  0  0  0  0
    3.7320   -2.9941    0.0000 C   0  0  0  0  0  0  0  0  0  0  0  0
    9.9206    3.4757    0.0000 C   0  0  0  0  0  0  0  0  0  0  0  0
   10.2778    1.7809    0.0000 C   0  0  0  0  0  0  0  0  0  0  0  0
   10.5885    2.7314    0.0000 C   0  0  0  0  0  0  0  0  0  0  0  0
    2.0000   -1.9941    0.0000 C   0  0  0  0  0  0  0  0  0  0  0  0
   11.8777    3.8881    0.0000 C   0  0  0  0  0  0  0  0  0  0  0  0
    6.3432    1.5757    0.0000 H   0  0  0  0  0  0  0  0  0  0  0  0
    5.7500    1.0434    0.0000 H   0  0  0  0  0  0  0  0  0  0  0  0
    5.5062    0.2975    0.0000 H   0  0  0  0  0  0  0  0  0  0  0  0
    5.6706   -0.4824    0.0000 H   0  0  0  0  0  0  0  0  0  0  0  0
    8.5571    0.1259    0.0000 H   0  0  0  0  0  0  0  0  0  0  0  0
    8.3927    0.9058    0.0000 H   0  0  0  0  0  0  0  0  0  0  0  0
    8.1136   -0.9941    0.0000 H   0  0  0  0  0  0  0  0  0  0  0  0
    7.6324    2.7324    0.0000 H   0  0  0  0  0  0  0  0  0  0  0  0
    7.0392    2.2001    0.0000 H   0  0  0  0  0  0  0  0  0  0  0  0
    7.6139   -2.4941    0.0000 H   0  0  0  0  0  0  0  0  0  0  0  0
    6.6029   -3.8881    0.0000 H   0  0  0  0  0  0  0  0  0  0  0  0
    4.5981   -0.8741    0.0000 H   0  0  0  0  0  0  0  0  0  0  0  0
    4.5981   -4.1141    0.0000 H   0  0  0  0  0  0  0  0  0  0  0  0
    8.5281    3.7309    0.0000 H   0  0  0  0  0  0  0  0  0  0  0  0
    9.1067    0.9853    0.0000 H   0  0  0  0  0  0  0  0  0  0  0  0
    3.1951   -3.3041    0.0000 H   0  0  0  0  0  0  0  0  0  0  0  0
   10.1133    4.0650    0.0000 H   0  0  0  0  0  0  0  0  0  0  0  0
   10.6919    1.3194    0.0000 H   0  0  0  0  0  0  0  0  0  0  0  0
    1.6900   -1.4571    0.0000 H   0  0  0  0  0  0  0  0  0  0  0  0
    1.4631   -2.3041    0.0000 H   0  0  0  0  0  0  0  0  0  0  0  0
    2.3100   -2.5310    0.0000 H   0  0  0  0  0  0  0  0  0  0  0  0
   12.4670    3.6955    0.0000 H   0  0  0  0  0  0  0  0  0  0  0  0
   12.0703    4.4774    0.0000 H   0  0  0  0  0  0  0  0  0  0  0  0
   11.2883    4.0807    0.0000 H   0  0  0  0  0  0  0  0  0  0  0  0
  1 20  1  0  0  0  0
  1 25  1  0  0  0  0
  2 24  1  0  0  0  0
  2 26  1  0  0  0  0
  3  5  1  0  0  0  0
  3  8  1  0  0  0  0
  3 11  1  0  0  0  0
  4 13  1  0  0  0  0
  4 14  1  0  0  0  0
  4 37  1  0  0  0  0
  5  6  1  0  0  0  0
  5 27  1  0  0  0  0
  5 28  1  0  0  0  0
  6  7  1  0  0  0  0
  6 29  1  0  0  0  0
  6 30  1  0  0  0  0
  7  9  2  0  0  0  0
  7 10  1  0  0  0  0
  8  9  1  0  0  0  0
  8 31  1  0  0  0  0
  8 32  1  0  0  0  0
  9 33  1  0  0  0  0
 10 12  1  0  0  0  0
 10 14  2  0  0  0  0
 11 15  1  0  0  0  0
 11 34  1  0  0  0  0
 11 35  1  0  0  0  0
 12 13  2  0  0  0  0
 12 16  1  0  0  0  0
 13 17  1  0  0  0  0
 14 36  1  0  0  0  0
 15 18  2  0  0  0  0
 15 19  1  0  0  0  0
 16 20  2  0  0  0  0
 16 38  1  0  0  0  0
 17 21  2  0  0  0  0
 17 39  1  0  0  0  0
 18 22  1  0  0  0  0
 18 40  1  0  0  0  0
 19 23  2  0  0  0  0
 19 41  1  0  0  0  0
 20 21  1  0  0  0  0
 21 42  1  0  0  0  0
 22 24  2  0  0  0  0
 22 43  1  0  0  0  0
 23 24  1  0  0  0  0
 23 44  1  0  0  0  0
 25 45  1  0  0  0  0
 25 46  1  0  0  0  0
 25 47  1  0  0  0  0
 26 48  1  0  0  0  0
 26 49  1  0  0  0  0
 26 50  1  0  0  0  0
M  END
> <PUBCHEM_COMPOUND_CID>
155521049

> <PUBCHEM_COMPOUND_CANONICALIZED>
1

> <PUBCHEM_CACTVS_COMPLEXITY>
487

> <PUBCHEM_CACTVS_HBOND_ACCEPTOR>
3

> <PUBCHEM_CACTVS_HBOND_DONOR>
1

> <PUBCHEM_CACTVS_ROTATABLE_BOND>
5

> <PUBCHEM_CACTVS_SUBSKEYS>
AAADceB7MAAAAAAAAAAAAAAAAAAAAWAAAAAwYIAAAAAAAFgB9AAAHgAQAAAADAzBngY+xvPJlACgAzRnRACCiCAxIiAI2aA+bJgMJuLEsZuEMChk0BHI6Aew0PIOoEABAAACAABAgAIAAAQAAAAAAAAAAA==

> <PUBCHEM_IUPAC_OPENEYE_NAME>
5-methoxy-3-[1-[(4-methoxyphenyl)methyl]-3,6-dihydro-2H-pyridin-4-yl]-1H-indole

> <PUBCHEM_IUPAC_CAS_NAME>
5-methoxy-3-[1-[(4-methoxyphenyl)methyl]-3,6-dihydro-2H-pyridin-4-yl]-1H-indole

> <PUBCHEM_IUPAC_NAME_MARKUP>
5-methoxy-3-[1-[(4-methoxyphenyl)methyl]-3,6-dihydro-2<I>H</I>-pyridin-4-yl]-1<I>H</I>-indole

> <PUBCHEM_IUPAC_NAME>
5-methoxy-3-[1-[(4-methoxyphenyl)methyl]-3,6-dihydro-2H-pyridin-4-yl]-1H-indole

> <PUBCHEM_IUPAC_SYSTEMATIC_NAME>
5-methoxy-3-[1-[(4-methoxyphenyl)methyl]-3,6-dihydro-2H-pyridin-4-yl]-1H-indole

> <PUBCHEM_IUPAC_TRADITIONAL_NAME>
5-methoxy-3-(1-p-anisyl-3,6-dihydro-2H-pyridin-4-yl)-1H-indole

> <PUBCHEM_IUPAC_INCHI>
InChI=1S/C22H24N2O2/c1-25-18-5-3-16(4-6-18)15-24-11-9-17(10-12-24)21-14-23-22-8-7-19(26-2)13-20(21)22/h3-9,13-14,23H,10-12,15H2,1-2H3

> <PUBCHEM_IUPAC_INCHIKEY>
CXNXVMOAPQHKNR-UHFFFAOYSA-N

> <PUBCHEM_XLOGP3_AA>
3.7

> <PUBCHEM_EXACT_MASS>
348.183778013

> <PUBCHEM_MOLECULAR_FORMULA>
C22H24N2O2

> <PUBCHEM_MOLECULAR_WEIGHT>
348.4

> <PUBCHEM_OPENEYE_CAN_SMILES>
COC1=CC=C(C=C1)CN2CCC(=CC2)C3=CNC4=C3C=C(C=C4)OC

> <PUBCHEM_OPENEYE_ISO_SMILES>
COC1=CC=C(C=C1)CN2CCC(=CC2)C3=CNC4=C3C=C(C=C4)OC

> <PUBCHEM_CACTVS_TPSA>
37.5

> <PUBCHEM_MONOISOTOPIC_WEIGHT>
348.183778013

> <PUBCHEM_TOTAL_CHARGE>
0

> <PUBCHEM_HEAVY_ATOM_COUNT>
26

> <PUBCHEM_ATOM_DEF_STEREO_COUNT>
0

> <PUBCHEM_ATOM_UDEF_STEREO_COUNT>
0

> <PUBCHEM_BOND_DEF_STEREO_COUNT>
0

> <PUBCHEM_BOND_UDEF_STEREO_COUNT>
0

> <PUBCHEM_ISOTOPIC_ATOM_COUNT>
0

> <PUBCHEM_COMPONENT_COUNT>
1

> <PUBCHEM_CACTVS_TAUTO_COUNT>
-1

> <PUBCHEM_COORDINATE_TYPE>
1
5
255

> <PUBCHEM_BONDANNOTATIONS>
10  12  8
10  14  8
12  13  8
12  16  8
13  17  8
15  18  8
15  19  8
16  20  8
17  21  8
18  22  8
19  23  8
20  21  8
22  24  8
23  24  8
4  13  8
4  14  8

$$$$
