127041673
  -OEChem-09292322362D

 54 57  0     1  0  0  0  0  0999 V2000
    5.4381    2.6374    0.0000 S   0  0  0  0  0  0  0  0  0  0  0  0
    2.0000    6.4558    0.0000 S   0  0  0  0  0  0  0  0  0  0  0  0
    8.0362   -6.8626    0.0000 F   0  0  0  0  0  0  0  0  0  0  0  0
    7.0362   -5.8626    0.0000 F   0  0  0  0  0  0  0  0  0  0  0  0
    9.0362   -5.8626    0.0000 F   0  0  0  0  0  0  0  0  0  0  0  0
    8.9022   -1.3626    0.0000 O   0  0  0  0  0  0  0  0  0  0  0  0
    7.1702   -0.3626    0.0000 N   0  0  3  0  0  0  0  0  0  0  0  0
    4.4676    4.1320    0.0000 N   0  0  0  0  0  0  0  0  0  0  0  0
    3.6585    2.7307    0.0000 N   0  0  0  0  0  0  0  0  0  0  0  0
    2.9894    3.4738    0.0000 N   0  0  0  0  0  0  0  0  0  0  0  0
    7.1702   -1.3626    0.0000 C   0  0  0  0  0  0  0  0  0  0  0  0
    8.0362   -1.8626    0.0000 C   0  0  3  0  0  0  0  0  0  0  0  0
    8.0362    0.1374    0.0000 C   0  0  0  0  0  0  0  0  0  0  0  0
    6.3041    0.1374    0.0000 C   0  0  0  0  0  0  0  0  0  0  0  0
    8.9022   -0.3626    0.0000 C   0  0  0  0  0  0  0  0  0  0  0  0
    8.0362   -2.8626    0.0000 C   0  0  0  0  0  0  0  0  0  0  0  0
    6.3041    1.1374    0.0000 C   0  0  0  0  0  0  0  0  0  0  0  0
    5.4381    1.6374    0.0000 C   0  0  0  0  0  0  0  0  0  0  0  0
    8.9022   -3.3626    0.0000 C   0  0  0  0  0  0  0  0  0  0  0  0
    7.1702   -3.3626    0.0000 C   0  0  0  0  0  0  0  0  0  0  0  0
    8.9022   -4.3626    0.0000 C   0  0  0  0  0  0  0  0  0  0  0  0
    7.1702   -4.3626    0.0000 C   0  0  0  0  0  0  0  0  0  0  0  0
    8.0362   -4.8626    0.0000 C   0  0  0  0  0  0  0  0  0  0  0  0
    4.5721    3.1374    0.0000 C   0  0  0  0  0  0  0  0  0  0  0  0
    8.0362   -5.8626    0.0000 C   0  0  0  0  0  0  0  0  0  0  0  0
    3.4894    4.3399    0.0000 C   0  0  0  0  0  0  0  0  0  0  0  0
    5.2107    4.8011    0.0000 C   0  0  0  0  0  0  0  0  0  0  0  0
    3.0827    5.2534    0.0000 C   0  0  0  0  0  0  0  0  0  0  0  0
    3.5827    6.1194    0.0000 C   0  0  0  0  0  0  0  0  0  0  0  0
    2.1045    5.4613    0.0000 C   0  0  0  0  0  0  0  0  0  0  0  0
    2.9136    6.8626    0.0000 C   0  0  0  0  0  0  0  0  0  0  0  0
    6.5596   -1.2549    0.0000 H   0  0  0  0  0  0  0  0  0  0  0  0
    6.9581   -1.9452    0.0000 H   0  0  0  0  0  0  0  0  0  0  0  0
    7.4992   -2.1726    0.0000 H   0  0  0  0  0  0  0  0  0  0  0  0
    8.4347    0.6124    0.0000 H   0  0  0  0  0  0  0  0  0  0  0  0
    7.6377    0.6124    0.0000 H   0  0  0  0  0  0  0  0  0  0  0  0
    5.6936    0.2451    0.0000 H   0  0  0  0  0  0  0  0  0  0  0  0
    6.0921   -0.4452    0.0000 H   0  0  0  0  0  0  0  0  0  0  0  0
    9.5128   -0.4702    0.0000 H   0  0  0  0  0  0  0  0  0  0  0  0
    9.1143    0.2200    0.0000 H   0  0  0  0  0  0  0  0  0  0  0  0
    6.9147    1.0298    0.0000 H   0  0  0  0  0  0  0  0  0  0  0  0
    6.5162    1.7200    0.0000 H   0  0  0  0  0  0  0  0  0  0  0  0
    4.8275    1.7451    0.0000 H   0  0  0  0  0  0  0  0  0  0  0  0
    5.2261    1.0548    0.0000 H   0  0  0  0  0  0  0  0  0  0  0  0
    9.4392   -3.0526    0.0000 H   0  0  0  0  0  0  0  0  0  0  0  0
    6.6332   -3.0526    0.0000 H   0  0  0  0  0  0  0  0  0  0  0  0
    9.4392   -4.6726    0.0000 H   0  0  0  0  0  0  0  0  0  0  0  0
    6.6332   -4.6726    0.0000 H   0  0  0  0  0  0  0  0  0  0  0  0
    5.6256    4.3403    0.0000 H   0  0  0  0  0  0  0  0  0  0  0  0
    5.6714    5.2159    0.0000 H   0  0  0  0  0  0  0  0  0  0  0  0
    4.7958    5.2618    0.0000 H   0  0  0  0  0  0  0  0  0  0  0  0
    4.1993    6.1842    0.0000 H   0  0  0  0  0  0  0  0  0  0  0  0
    1.6438    5.0464    0.0000 H   0  0  0  0  0  0  0  0  0  0  0  0
    3.0424    7.4690    0.0000 H   0  0  0  0  0  0  0  0  0  0  0  0
  1 18  1  0  0  0  0
  1 24  1  0  0  0  0
  2 30  1  0  0  0  0
  2 31  1  0  0  0  0
  3 25  1  0  0  0  0
  4 25  1  0  0  0  0
  5 25  1  0  0  0  0
  6 12  1  0  0  0  0
  6 15  1  0  0  0  0
  7 11  1  0  0  0  0
  7 13  1  0  0  0  0
  7 14  1  0  0  0  0
  8 24  1  0  0  0  0
  8 26  1  0  0  0  0
  8 27  1  0  0  0  0
  9 10  1  0  0  0  0
  9 24  2  0  0  0  0
 10 26  2  0  0  0  0
 11 12  1  0  0  0  0
 11 32  1  0  0  0  0
 11 33  1  0  0  0  0
 12 16  1  0  0  0  0
 12 34  1  0  0  0  0
 13 15  1  0  0  0  0
 13 35  1  0  0  0  0
 13 36  1  0  0  0  0
 14 17  1  0  0  0  0
 14 37  1  0  0  0  0
 14 38  1  0  0  0  0
 15 39  1  0  0  0  0
 15 40  1  0  0  0  0
 16 19  2  0  0  0  0
 16 20  1  0  0  0  0
 17 18  1  0  0  0  0
 17 41  1  0  0  0  0
 17 42  1  0  0  0  0
 18 43  1  0  0  0  0
 18 44  1  0  0  0  0
 19 21  1  0  0  0  0
 19 45  1  0  0  0  0
 20 22  2  0  0  0  0
 20 46  1  0  0  0  0
 21 23  2  0  0  0  0
 21 47  1  0  0  0  0
 22 23  1  0  0  0  0
 22 48  1  0  0  0  0
 23 25  1  0  0  0  0
 26 28  1  0  0  0  0
 27 49  1  0  0  0  0
 27 50  1  0  0  0  0
 27 51  1  0  0  0  0
 28 29  1  0  0  0  0
 28 30  2  0  0  0  0
 29 31  2  0  0  0  0
 29 52  1  0  0  0  0
 30 53  1  0  0  0  0
 31 54  1  0  0  0  0
M  END
> <PUBCHEM_COMPOUND_CID>
127041673

> <PUBCHEM_COMPOUND_CANONICALIZED>
1

> <PUBCHEM_CACTVS_COMPLEXITY>
565

> <PUBCHEM_CACTVS_HBOND_ACCEPTOR>
9

> <PUBCHEM_CACTVS_HBOND_DONOR>
0

> <PUBCHEM_CACTVS_ROTATABLE_BOND>
7

> <PUBCHEM_CACTVS_SUBSKEYS>
AAADceB7oYBgAAAAAAAAAAAAAAAAAWJAAAA8QAAAAAAAAAAB8AAAHwQIAAAADBTl2xazEYcMFAimAiJiJACT0ItgCLBdyDgoDJiKLqKguRmHMAhkyAO4qAeQwPAOQAAAAAAAAACAAAAAAAAAAAAAAAAAAA==

> <PUBCHEM_IUPAC_OPENEYE_NAME>
4-[3-[[4-methyl-5-(3-thienyl)-1,2,4-triazol-3-yl]sulfanyl]propyl]-2-[4-(trifluoromethyl)phenyl]morpholine

> <PUBCHEM_IUPAC_CAS_NAME>
4-[3-[[4-methyl-5-(3-thiophenyl)-1,2,4-triazol-3-yl]thio]propyl]-2-[4-(trifluoromethyl)phenyl]morpholine

> <PUBCHEM_IUPAC_NAME_MARKUP>
4-[3-[(4-methyl-5-thiophen-3-yl-1,2,4-triazol-3-yl)sulfanyl]propyl]-2-[4-(trifluoromethyl)phenyl]morpholine

> <PUBCHEM_IUPAC_NAME>
4-[3-[(4-methyl-5-thiophen-3-yl-1,2,4-triazol-3-yl)sulfanyl]propyl]-2-[4-(trifluoromethyl)phenyl]morpholine

> <PUBCHEM_IUPAC_SYSTEMATIC_NAME>
4-[3-[(4-methyl-5-thiophen-3-yl-1,2,4-triazol-3-yl)sulfanyl]propyl]-2-[4-(trifluoromethyl)phenyl]morpholine

> <PUBCHEM_IUPAC_TRADITIONAL_NAME>
4-[3-[[4-methyl-5-(3-thienyl)-1,2,4-triazol-3-yl]thio]propyl]-2-[4-(trifluoromethyl)phenyl]morpholine

> <PUBCHEM_IUPAC_INCHI>
InChI=1S/C21H23F3N4OS2/c1-27-19(16-7-12-30-14-16)25-26-20(27)31-11-2-8-28-9-10-29-18(13-28)15-3-5-17(6-4-15)21(22,23)24/h3-7,12,14,18H,2,8-11,13H2,1H3

> <PUBCHEM_IUPAC_INCHIKEY>
AGPVWRLINFFKSF-UHFFFAOYSA-N

> <PUBCHEM_XLOGP3_AA>
4

> <PUBCHEM_EXACT_MASS>
468.12653820

> <PUBCHEM_MOLECULAR_FORMULA>
C21H23F3N4OS2

> <PUBCHEM_MOLECULAR_WEIGHT>
468.6

> <PUBCHEM_OPENEYE_CAN_SMILES>
CN1C(=NN=C1SCCCN2CCOC(C2)C3=CC=C(C=C3)C(F)(F)F)C4=CSC=C4

> <PUBCHEM_OPENEYE_ISO_SMILES>
CN1C(=NN=C1SCCCN2CCOC(C2)C3=CC=C(C=C3)C(F)(F)F)C4=CSC=C4

> <PUBCHEM_CACTVS_TPSA>
96.7

> <PUBCHEM_MONOISOTOPIC_WEIGHT>
468.12653820

> <PUBCHEM_TOTAL_CHARGE>
0

> <PUBCHEM_HEAVY_ATOM_COUNT>
31

> <PUBCHEM_ATOM_DEF_STEREO_COUNT>
0

> <PUBCHEM_ATOM_UDEF_STEREO_COUNT>
1

> <PUBCHEM_BOND_DEF_STEREO_COUNT>
0

> <PUBCHEM_BOND_UDEF_STEREO_COUNT>
0

> <PUBCHEM_ISOTOPIC_ATOM_COUNT>
0

> <PUBCHEM_COMPONENT_COUNT>
1

> <PUBCHEM_CACTVS_TAUTO_COUNT>
-1

> <PUBCHEM_COORDINATE_TYPE>
1
5
255

> <PUBCHEM_BONDANNOTATIONS>
10  26  8
12  16  3
16  19  8
16  20  8
19  21  8
2  30  8
2  31  8
20  22  8
21  23  8
22  23  8
28  29  8
28  30  8
29  31  8
8  24  8
8  26  8
9  10  8
9  24  8

$$$$
