44436747
  -OEChem-09292322252D

 66 71  0     1  0  0  0  0  0999 V2000
    4.9495   -4.7434    0.0000 S   0  0  0  0  0  0  0  0  0  0  0  0
    6.7099   -3.6271    0.0000 O   0  0  0  0  0  0  0  0  0  0  0  0
    9.7839    2.6620    0.0000 N   0  0  3  0  0  0  0  0  0  0  0  0
    8.0832    1.4831    0.0000 N   0  0  3  0  0  0  0  0  0  0  0  0
    5.7397   -2.1922    0.0000 N   0  0  0  0  0  0  0  0  0  0  0  0
    8.8829    3.0958    0.0000 C   0  0  3  0  0  0  0  0  0  0  0  0
    8.0134    2.5224    0.0000 C   0  0  0  0  0  0  0  0  0  0  0  0
    9.8777    1.6246    0.0000 C   0  0  0  0  0  0  0  0  0  0  0  0
    9.0217    1.0312    0.0000 C   0  0  0  0  0  0  0  0  0  0  0  0
    8.6604    4.0708    0.0000 C   0  0  0  0  0  0  0  0  0  0  0  0
   10.6849    3.0958    0.0000 C   0  0  0  0  0  0  0  0  0  0  0  0
    7.2548    0.9230    0.0000 C   0  0  0  0  0  0  0  0  0  0  0  0
    9.2839    4.8526    0.0000 C   0  0  0  0  0  0  0  0  0  0  0  0
   10.9074    4.0708    0.0000 C   0  0  0  0  0  0  0  0  0  0  0  0
   10.2839    4.8526    0.0000 C   0  0  0  0  0  0  0  0  0  0  0  0
    7.3257   -0.0745    0.0000 C   0  0  0  0  0  0  0  0  0  0  0  0
    7.6281    4.2101    0.0000 C   0  0  0  0  0  0  0  0  0  0  0  0
   11.4374    2.3756    0.0000 C   0  0  0  0  0  0  0  0  0  0  0  0
    8.9183    5.8280    0.0000 C   0  0  0  0  0  0  0  0  0  0  0  0
    6.4973   -0.6346    0.0000 C   0  0  0  0  0  0  0  0  0  0  0  0
   11.8979    4.3931    0.0000 C   0  0  0  0  0  0  0  0  0  0  0  0
    7.2401    5.1768    0.0000 C   0  0  0  0  0  0  0  0  0  0  0  0
    7.8896    5.9912    0.0000 C   0  0  0  0  0  0  0  0  0  0  0  0
   12.4351    2.6750    0.0000 C   0  0  0  0  0  0  0  0  0  0  0  0
   12.6669    3.6905    0.0000 C   0  0  0  0  0  0  0  0  0  0  0  0
    6.5681   -1.6321    0.0000 C   0  0  0  0  0  0  0  0  0  0  0  0
    5.8106   -3.1897    0.0000 C   0  0  0  0  0  0  0  0  0  0  0  0
    4.9822   -3.7499    0.0000 C   0  0  0  0  0  0  0  0  0  0  0  0
    4.0480   -3.4101    0.0000 C   0  0  0  0  0  0  0  0  0  0  0  0
    3.4348   -4.1926    0.0000 C   0  0  0  0  0  0  0  0  0  0  0  0
    3.9950   -5.0210    0.0000 C   0  0  0  0  0  0  0  0  0  0  0  0
    2.4374   -4.2635    0.0000 C   0  0  0  0  0  0  0  0  0  0  0  0
    3.5576   -5.9203    0.0000 C   0  0  0  0  0  0  0  0  0  0  0  0
    2.0000   -5.1628    0.0000 C   0  0  0  0  0  0  0  0  0  0  0  0
    2.5601   -5.9912    0.0000 C   0  0  0  0  0  0  0  0  0  0  0  0
    8.3076    3.3268    0.0000 H   0  0  0  0  0  0  0  0  0  0  0  0
    7.7656    3.0908    0.0000 H   0  0  0  0  0  0  0  0  0  0  0  0
    7.4110    2.3756    0.0000 H   0  0  0  0  0  0  0  0  0  0  0  0
   10.1385    1.0621    0.0000 H   0  0  0  0  0  0  0  0  0  0  0  0
   10.4766    1.7852    0.0000 H   0  0  0  0  0  0  0  0  0  0  0  0
    8.6610    0.5268    0.0000 H   0  0  0  0  0  0  0  0  0  0  0  0
    9.4568    0.5896    0.0000 H   0  0  0  0  0  0  0  0  0  0  0  0
    7.0020    1.4891    0.0000 H   0  0  0  0  0  0  0  0  0  0  0  0
    6.6534    0.7723    0.0000 H   0  0  0  0  0  0  0  0  0  0  0  0
   10.8425    5.1216    0.0000 H   0  0  0  0  0  0  0  0  0  0  0  0
   10.1459    5.4570    0.0000 H   0  0  0  0  0  0  0  0  0  0  0  0
    7.5785   -0.6406    0.0000 H   0  0  0  0  0  0  0  0  0  0  0  0
    7.9271    0.0762    0.0000 H   0  0  0  0  0  0  0  0  0  0  0  0
    7.2472    3.7209    0.0000 H   0  0  0  0  0  0  0  0  0  0  0  0
   11.2925    1.7728    0.0000 H   0  0  0  0  0  0  0  0  0  0  0  0
    9.3105    6.3082    0.0000 H   0  0  0  0  0  0  0  0  0  0  0  0
    6.2444   -0.0685    0.0000 H   0  0  0  0  0  0  0  0  0  0  0  0
    5.8958   -0.7853    0.0000 H   0  0  0  0  0  0  0  0  0  0  0  0
   12.0289    4.9991    0.0000 H   0  0  0  0  0  0  0  0  0  0  0  0
    6.6267    5.2668    0.0000 H   0  0  0  0  0  0  0  0  0  0  0  0
    7.6653    6.5692    0.0000 H   0  0  0  0  0  0  0  0  0  0  0  0
   12.8880    2.2515    0.0000 H   0  0  0  0  0  0  0  0  0  0  0  0
   13.2586    3.8755    0.0000 H   0  0  0  0  0  0  0  0  0  0  0  0
    6.8210   -2.1982    0.0000 H   0  0  0  0  0  0  0  0  0  0  0  0
    7.1696   -1.4814    0.0000 H   0  0  0  0  0  0  0  0  0  0  0  0
    5.1822   -1.9211    0.0000 H   0  0  0  0  0  0  0  0  0  0  0  0
    3.8775   -2.8140    0.0000 H   0  0  0  0  0  0  0  0  0  0  0  0
    2.0901   -3.7498    0.0000 H   0  0  0  0  0  0  0  0  0  0  0  0
    3.9049   -6.4339    0.0000 H   0  0  0  0  0  0  0  0  0  0  0  0
    1.3816   -5.2067    0.0000 H   0  0  0  0  0  0  0  0  0  0  0  0
    2.2890   -6.5487    0.0000 H   0  0  0  0  0  0  0  0  0  0  0  0
  1 28  1  0  0  0  0
  1 31  1  0  0  0  0
  2 27  2  0  0  0  0
  3  6  1  0  0  0  0
  3  8  1  0  0  0  0
  3 11  1  0  0  0  0
  4  7  1  0  0  0  0
  4  9  1  0  0  0  0
  4 12  1  0  0  0  0
  5 26  1  0  0  0  0
  5 27  1  0  0  0  0
  5 61  1  0  0  0  0
  6  7  1  0  0  0  0
  6 10  1  0  0  0  0
  6 36  1  0  0  0  0
  7 37  1  0  0  0  0
  7 38  1  0  0  0  0
  8  9  1  0  0  0  0
  8 39  1  0  0  0  0
  8 40  1  0  0  0  0
  9 41  1  0  0  0  0
  9 42  1  0  0  0  0
 10 13  1  0  0  0  0
 10 17  2  0  0  0  0
 11 14  1  0  0  0  0
 11 18  2  0  0  0  0
 12 16  1  0  0  0  0
 12 43  1  0  0  0  0
 12 44  1  0  0  0  0
 13 15  1  0  0  0  0
 13 19  2  0  0  0  0
 14 15  1  0  0  0  0
 14 21  2  0  0  0  0
 15 45  1  0  0  0  0
 15 46  1  0  0  0  0
 16 20  1  0  0  0  0
 16 47  1  0  0  0  0
 16 48  1  0  0  0  0
 17 22  1  0  0  0  0
 17 49  1  0  0  0  0
 18 24  1  0  0  0  0
 18 50  1  0  0  0  0
 19 23  1  0  0  0  0
 19 51  1  0  0  0  0
 20 26  1  0  0  0  0
 20 52  1  0  0  0  0
 20 53  1  0  0  0  0
 21 25  1  0  0  0  0
 21 54  1  0  0  0  0
 22 23  2  0  0  0  0
 22 55  1  0  0  0  0
 23 56  1  0  0  0  0
 24 25  2  0  0  0  0
 24 57  1  0  0  0  0
 25 58  1  0  0  0  0
 26 59  1  0  0  0  0
 26 60  1  0  0  0  0
 27 28  1  0  0  0  0
 28 29  2  0  0  0  0
 29 30  1  0  0  0  0
 29 62  1  0  0  0  0
 30 31  1  0  0  0  0
 30 32  2  0  0  0  0
 31 33  2  0  0  0  0
 32 34  1  0  0  0  0
 32 63  1  0  0  0  0
 33 35  1  0  0  0  0
 33 64  1  0  0  0  0
 34 35  2  0  0  0  0
 34 65  1  0  0  0  0
 35 66  1  0  0  0  0
M  END
> <PUBCHEM_COMPOUND_CID>
44436747

> <PUBCHEM_COMPOUND_CANONICALIZED>
1

> <PUBCHEM_CACTVS_COMPLEXITY>
718

> <PUBCHEM_CACTVS_HBOND_ACCEPTOR>
4

> <PUBCHEM_CACTVS_HBOND_DONOR>
1

> <PUBCHEM_CACTVS_ROTATABLE_BOND>
6

> <PUBCHEM_CACTVS_SUBSKEYS>
AAADceB7IABAAAAAAAAAAAAAAAAAASAAAAA8YMEABYAAAEgB9AAAHgQQAAAADCjB2AQwwcPAAAiMAiVSUACDAIAlChBIiJkIZMgIYDLglZGUIQhglgDoyYcYiMCOgAAAAAAWAAAAAAAAACwAAAAAAAAAAA==

> <PUBCHEM_IUPAC_OPENEYE_NAME>
N-[4-(2,5-diazatetracyclo[13.4.0.02,7.08,13]nonadeca-1(19),8,10,12,15,17-hexaen-5-yl)butyl]benzothiophene-2-carboxamide

> <PUBCHEM_IUPAC_CAS_NAME>
N-[4-(2,5-diazatetracyclo[13.4.0.02,7.08,13]nonadeca-1(19),8,10,12,15,17-hexaen-5-yl)butyl]-1-benzothiophene-2-carboxamide

> <PUBCHEM_IUPAC_NAME_MARKUP>
<I>N</I>-[4-(2,5-diazatetracyclo[13.4.0.0<SUP>2,7</SUP>.0<SUP>8,13</SUP>]nonadeca-1(19),8,10,12,15,17-hexaen-5-yl)butyl]-1-benzothiophene-2-carboxamide

> <PUBCHEM_IUPAC_NAME>
N-[4-(2,5-diazatetracyclo[13.4.0.02,7.08,13]nonadeca-1(19),8,10,12,15,17-hexaen-5-yl)butyl]-1-benzothiophene-2-carboxamide

> <PUBCHEM_IUPAC_SYSTEMATIC_NAME>
N-[4-(2,5-diazatetracyclo[13.4.0.02,7.08,13]nonadeca-1(19),8,10,12,15,17-hexaen-5-yl)butyl]-1-benzothiophene-2-carboxamide

> <PUBCHEM_IUPAC_TRADITIONAL_NAME>
N-[4-(2,5-diazatetracyclo[13.4.0.02,7.08,13]nonadeca-1(19),8,10,12,15,17-hexaen-5-yl)butyl]benzothiophene-2-carboxamide

> <PUBCHEM_IUPAC_INCHI>
InChI=1S/C30H31N3OS/c34-30(29-20-24-11-3-6-14-28(24)35-29)31-15-7-8-16-32-17-18-33-26-13-5-2-10-23(26)19-22-9-1-4-12-25(22)27(33)21-32/h1-6,9-14,20,27H,7-8,15-19,21H2,(H,31,34)

> <PUBCHEM_IUPAC_INCHIKEY>
IBGOYLLAGSRGCH-UHFFFAOYSA-N

> <PUBCHEM_XLOGP3_AA>
6.4

> <PUBCHEM_EXACT_MASS>
481.21878379

> <PUBCHEM_MOLECULAR_FORMULA>
C30H31N3OS

> <PUBCHEM_MOLECULAR_WEIGHT>
481.7

> <PUBCHEM_OPENEYE_CAN_SMILES>
C1CN2C(CN1CCCCNC(=O)C3=CC4=CC=CC=C4S3)C5=CC=CC=C5CC6=CC=CC=C62

> <PUBCHEM_OPENEYE_ISO_SMILES>
C1CN2C(CN1CCCCNC(=O)C3=CC4=CC=CC=C4S3)C5=CC=CC=C5CC6=CC=CC=C62

> <PUBCHEM_CACTVS_TPSA>
63.8

> <PUBCHEM_MONOISOTOPIC_WEIGHT>
481.21878379

> <PUBCHEM_TOTAL_CHARGE>
0

> <PUBCHEM_HEAVY_ATOM_COUNT>
35

> <PUBCHEM_ATOM_DEF_STEREO_COUNT>
0

> <PUBCHEM_ATOM_UDEF_STEREO_COUNT>
1

> <PUBCHEM_BOND_DEF_STEREO_COUNT>
0

> <PUBCHEM_BOND_UDEF_STEREO_COUNT>
0

> <PUBCHEM_ISOTOPIC_ATOM_COUNT>
0

> <PUBCHEM_COMPONENT_COUNT>
1

> <PUBCHEM_CACTVS_TAUTO_COUNT>
-1

> <PUBCHEM_COORDINATE_TYPE>
1
5
255

> <PUBCHEM_BONDANNOTATIONS>
1  28  8
1  31  8
10  13  8
10  17  8
11  14  8
11  18  8
13  19  8
14  21  8
17  22  8
18  24  8
19  23  8
21  25  8
22  23  8
24  25  8
28  29  8
29  30  8
30  31  8
30  32  8
31  33  8
32  34  8
33  35  8
34  35  8
6  7  3

$$$$
