90645302
  -OEChem-09292322352D

 67 70  0     0  0  0  0  0  0999 V2000
   16.5920   -4.7064    0.0000 Cl  0  0  0  0  0  0  0  0  0  0  0  0
    5.5443    1.6850    0.0000 S   0  0  0  0  0  0  0  0  0  0  0  0
   13.1279   -3.7064    0.0000 O   0  0  0  0  0  0  0  0  0  0  0  0
    7.6279    3.3557    0.0000 O   0  0  0  0  0  0  0  0  0  0  0  0
   12.1279   -0.9744    0.0000 N   0  0  0  0  0  0  0  0  0  0  0  0
    7.6279    1.6237    0.0000 N   0  0  0  0  0  0  0  0  0  0  0  0
    3.7320    1.4897    0.0000 N   0  0  0  0  0  0  0  0  0  0  0  0
    5.8550    4.2450    0.0000 N   0  0  0  0  0  0  0  0  0  0  0  0
   13.1279   -2.7064    0.0000 C   0  0  0  0  0  0  0  0  0  0  0  0
   13.6279   -1.8404    0.0000 C   0  0  0  0  0  0  0  0  0  0  0  0
   12.1279   -2.7064    0.0000 C   0  0  0  0  0  0  0  0  0  0  0  0
   13.1279   -0.9744    0.0000 C   0  0  0  0  0  0  0  0  0  0  0  0
   11.6279   -1.8404    0.0000 C   0  0  0  0  0  0  0  0  0  0  0  0
   11.6279   -0.1084    0.0000 C   0  0  0  0  0  0  0  0  0  0  0  0
   13.9939   -3.2064    0.0000 C   0  0  0  0  0  0  0  0  0  0  0  0
   10.6279   -0.1084    0.0000 C   0  0  0  0  0  0  0  0  0  0  0  0
   10.1279    0.7577    0.0000 C   0  0  0  0  0  0  0  0  0  0  0  0
   14.8600   -2.7064    0.0000 C   0  0  0  0  0  0  0  0  0  0  0  0
   13.9939   -4.2064    0.0000 C   0  0  0  0  0  0  0  0  0  0  0  0
    9.1279    0.7577    0.0000 C   0  0  0  0  0  0  0  0  0  0  0  0
   15.7260   -3.2064    0.0000 C   0  0  0  0  0  0  0  0  0  0  0  0
   14.8600   -4.7064    0.0000 C   0  0  0  0  0  0  0  0  0  0  0  0
    8.6279    1.6237    0.0000 C   0  0  0  0  0  0  0  0  0  0  0  0
   15.7260   -4.2064    0.0000 C   0  0  0  0  0  0  0  0  0  0  0  0
    7.1279    2.4897    0.0000 C   0  0  0  0  0  0  0  0  0  0  0  0
    6.1279    2.4897    0.0000 C   0  0  0  0  0  0  0  0  0  0  0  0
    5.5443    3.2944    0.0000 C   0  0  0  0  0  0  0  0  0  0  0  0
    4.5981    2.9897    0.0000 C   0  0  0  0  0  0  0  0  0  0  0  0
    4.5981    1.9897    0.0000 C   0  0  0  0  0  0  0  0  0  0  0  0
    3.7320    3.4897    0.0000 C   0  0  0  0  0  0  0  0  0  0  0  0
    2.8660    2.9897    0.0000 C   0  0  0  0  0  0  0  0  0  0  0  0
    2.8660    1.9897    0.0000 C   0  0  0  0  0  0  0  0  0  0  0  0
    3.7320    4.4897    0.0000 C   0  0  0  0  0  0  0  0  0  0  0  0
    2.0000    1.4897    0.0000 C   0  0  0  0  0  0  0  0  0  0  0  0
   14.1029   -2.2389    0.0000 H   0  0  0  0  0  0  0  0  0  0  0  0
   14.1029   -1.4419    0.0000 H   0  0  0  0  0  0  0  0  0  0  0  0
   11.5453   -2.9185    0.0000 H   0  0  0  0  0  0  0  0  0  0  0  0
   12.2356   -3.3170    0.0000 H   0  0  0  0  0  0  0  0  0  0  0  0
   13.7105   -0.7623    0.0000 H   0  0  0  0  0  0  0  0  0  0  0  0
   13.0202   -0.3638    0.0000 H   0  0  0  0  0  0  0  0  0  0  0  0
   11.1530   -1.4419    0.0000 H   0  0  0  0  0  0  0  0  0  0  0  0
   11.1530   -2.2389    0.0000 H   0  0  0  0  0  0  0  0  0  0  0  0
   12.2105    0.1037    0.0000 H   0  0  0  0  0  0  0  0  0  0  0  0
   11.5202    0.5022    0.0000 H   0  0  0  0  0  0  0  0  0  0  0  0
   10.0453   -0.3204    0.0000 H   0  0  0  0  0  0  0  0  0  0  0  0
   10.7356   -0.7189    0.0000 H   0  0  0  0  0  0  0  0  0  0  0  0
   12.5910   -4.0164    0.0000 H   0  0  0  0  0  0  0  0  0  0  0  0
   10.7105    0.9697    0.0000 H   0  0  0  0  0  0  0  0  0  0  0  0
   10.0202    1.3682    0.0000 H   0  0  0  0  0  0  0  0  0  0  0  0
   14.8600   -2.0864    0.0000 H   0  0  0  0  0  0  0  0  0  0  0  0
   13.4570   -4.5164    0.0000 H   0  0  0  0  0  0  0  0  0  0  0  0
    8.5453    0.5456    0.0000 H   0  0  0  0  0  0  0  0  0  0  0  0
    9.2356    0.1471    0.0000 H   0  0  0  0  0  0  0  0  0  0  0  0
   16.2629   -2.8964    0.0000 H   0  0  0  0  0  0  0  0  0  0  0  0
   14.8600   -5.3264    0.0000 H   0  0  0  0  0  0  0  0  0  0  0  0
    9.2105    1.8357    0.0000 H   0  0  0  0  0  0  0  0  0  0  0  0
    8.5202    2.2343    0.0000 H   0  0  0  0  0  0  0  0  0  0  0  0
    7.3179    1.0868    0.0000 H   0  0  0  0  0  0  0  0  0  0  0  0
    2.3291    3.2997    0.0000 H   0  0  0  0  0  0  0  0  0  0  0  0
    4.3520    4.4897    0.0000 H   0  0  0  0  0  0  0  0  0  0  0  0
    3.7320    5.1097    0.0000 H   0  0  0  0  0  0  0  0  0  0  0  0
    3.1120    4.4897    0.0000 H   0  0  0  0  0  0  0  0  0  0  0  0
    6.4616    4.3728    0.0000 H   0  0  0  0  0  0  0  0  0  0  0  0
    5.4409    4.7064    0.0000 H   0  0  0  0  0  0  0  0  0  0  0  0
    1.6900    2.0266    0.0000 H   0  0  0  0  0  0  0  0  0  0  0  0
    1.4631    1.1797    0.0000 H   0  0  0  0  0  0  0  0  0  0  0  0
    2.3100    0.9528    0.0000 H   0  0  0  0  0  0  0  0  0  0  0  0
  1 24  1  0  0  0  0
  2 26  1  0  0  0  0
  2 29  1  0  0  0  0
  3  9  1  0  0  0  0
  3 47  1  0  0  0  0
  4 25  2  0  0  0  0
  5 12  1  0  0  0  0
  5 13  1  0  0  0  0
  5 14  1  0  0  0  0
  6 23  1  0  0  0  0
  6 25  1  0  0  0  0
  6 58  1  0  0  0  0
  7 29  1  0  0  0  0
  7 32  2  0  0  0  0
  8 27  1  0  0  0  0
  8 63  1  0  0  0  0
  8 64  1  0  0  0  0
  9 10  1  0  0  0  0
  9 11  1  0  0  0  0
  9 15  1  0  0  0  0
 10 12  1  0  0  0  0
 10 35  1  0  0  0  0
 10 36  1  0  0  0  0
 11 13  1  0  0  0  0
 11 37  1  0  0  0  0
 11 38  1  0  0  0  0
 12 39  1  0  0  0  0
 12 40  1  0  0  0  0
 13 41  1  0  0  0  0
 13 42  1  0  0  0  0
 14 16  1  0  0  0  0
 14 43  1  0  0  0  0
 14 44  1  0  0  0  0
 15 18  2  0  0  0  0
 15 19  1  0  0  0  0
 16 17  1  0  0  0  0
 16 45  1  0  0  0  0
 16 46  1  0  0  0  0
 17 20  1  0  0  0  0
 17 48  1  0  0  0  0
 17 49  1  0  0  0  0
 18 21  1  0  0  0  0
 18 50  1  0  0  0  0
 19 22  2  0  0  0  0
 19 51  1  0  0  0  0
 20 23  1  0  0  0  0
 20 52  1  0  0  0  0
 20 53  1  0  0  0  0
 21 24  2  0  0  0  0
 21 54  1  0  0  0  0
 22 24  1  0  0  0  0
 22 55  1  0  0  0  0
 23 56  1  0  0  0  0
 23 57  1  0  0  0  0
 25 26  1  0  0  0  0
 26 27  2  0  0  0  0
 27 28  1  0  0  0  0
 28 29  2  0  0  0  0
 28 30  1  0  0  0  0
 30 31  2  0  0  0  0
 30 33  1  0  0  0  0
 31 32  1  0  0  0  0
 31 59  1  0  0  0  0
 32 34  1  0  0  0  0
 33 60  1  0  0  0  0
 33 61  1  0  0  0  0
 33 62  1  0  0  0  0
 34 65  1  0  0  0  0
 34 66  1  0  0  0  0
 34 67  1  0  0  0  0
M  END
> <PUBCHEM_COMPOUND_CID>
90645302

> <PUBCHEM_COMPOUND_CANONICALIZED>
1

> <PUBCHEM_CACTVS_COMPLEXITY>
669

> <PUBCHEM_CACTVS_HBOND_ACCEPTOR>
6

> <PUBCHEM_CACTVS_HBOND_DONOR>
3

> <PUBCHEM_CACTVS_ROTATABLE_BOND>
8

> <PUBCHEM_CACTVS_SUBSKEYS>
AAADcfB7sABEAAAAAAAAAAAAAAAAASAAAAA8WIAAAAAAAFgB/AAAHgYQCAAADE7B3iQywdPIEgisAyVyVACD0KBlDzgImLU4btgIJnrh19GEdYxm1gHo2UeYyeCOhAAAAAAAAAAIAAAAAAAAAAAAAAAAAA==

> <PUBCHEM_IUPAC_OPENEYE_NAME>
3-amino-N-[5-[4-(4-chlorophenyl)-4-hydroxy-1-piperidyl]pentyl]-4,6-dimethyl-thieno[2,3-b]pyridine-2-carboxamide

> <PUBCHEM_IUPAC_CAS_NAME>
3-amino-N-[5-[4-(4-chlorophenyl)-4-hydroxy-1-piperidinyl]pentyl]-4,6-dimethyl-2-thieno[2,3-b]pyridinecarboxamide

> <PUBCHEM_IUPAC_NAME_MARKUP>
3-amino-<I>N</I>-[5-[4-(4-chlorophenyl)-4-hydroxypiperidin-1-yl]pentyl]-4,6-dimethylthieno[2,3-b]pyridine-2-carboxamide

> <PUBCHEM_IUPAC_NAME>
3-amino-N-[5-[4-(4-chlorophenyl)-4-hydroxypiperidin-1-yl]pentyl]-4,6-dimethylthieno[2,3-b]pyridine-2-carboxamide

> <PUBCHEM_IUPAC_SYSTEMATIC_NAME>
3-azanyl-N-[5-[4-(4-chlorophenyl)-4-oxidanyl-piperidin-1-yl]pentyl]-4,6-dimethyl-thieno[2,3-b]pyridine-2-carboxamide

> <PUBCHEM_IUPAC_TRADITIONAL_NAME>
3-amino-N-[5-[4-(4-chlorophenyl)-4-hydroxy-piperidino]pentyl]-4,6-dimethyl-thieno[2,3-b]pyridine-2-carboxamide

> <PUBCHEM_IUPAC_INCHI>
InChI=1S/C26H33ClN4O2S/c1-17-16-18(2)30-25-21(17)22(28)23(34-25)24(32)29-12-4-3-5-13-31-14-10-26(33,11-15-31)19-6-8-20(27)9-7-19/h6-9,16,33H,3-5,10-15,28H2,1-2H3,(H,29,32)

> <PUBCHEM_IUPAC_INCHIKEY>
FBWAJWVVFJJYLR-UHFFFAOYSA-N

> <PUBCHEM_XLOGP3_AA>
5.3

> <PUBCHEM_EXACT_MASS>
500.2012752

> <PUBCHEM_MOLECULAR_FORMULA>
C26H33ClN4O2S

> <PUBCHEM_MOLECULAR_WEIGHT>
501.1

> <PUBCHEM_OPENEYE_CAN_SMILES>
CC1=CC(=NC2=C1C(=C(S2)C(=O)NCCCCCN3CCC(CC3)(C4=CC=C(C=C4)Cl)O)N)C

> <PUBCHEM_OPENEYE_ISO_SMILES>
CC1=CC(=NC2=C1C(=C(S2)C(=O)NCCCCCN3CCC(CC3)(C4=CC=C(C=C4)Cl)O)N)C

> <PUBCHEM_CACTVS_TPSA>
120

> <PUBCHEM_MONOISOTOPIC_WEIGHT>
500.2012752

> <PUBCHEM_TOTAL_CHARGE>
0

> <PUBCHEM_HEAVY_ATOM_COUNT>
34

> <PUBCHEM_ATOM_DEF_STEREO_COUNT>
0

> <PUBCHEM_ATOM_UDEF_STEREO_COUNT>
0

> <PUBCHEM_BOND_DEF_STEREO_COUNT>
0

> <PUBCHEM_BOND_UDEF_STEREO_COUNT>
0

> <PUBCHEM_ISOTOPIC_ATOM_COUNT>
0

> <PUBCHEM_COMPONENT_COUNT>
1

> <PUBCHEM_CACTVS_TAUTO_COUNT>
-1

> <PUBCHEM_COORDINATE_TYPE>
1
5
255

> <PUBCHEM_BONDANNOTATIONS>
15  18  8
15  19  8
18  21  8
19  22  8
2  26  8
2  29  8
21  24  8
22  24  8
26  27  8
27  28  8
28  29  8
28  30  8
30  31  8
31  32  8
7  29  8
7  32  8

$$$$
