118731512
  -OEChem-09292322352D

 61 64  0     0  0  0  0  0  0999 V2000
    8.8564    2.5153    0.0000 O   0  0  0  0  0  0  0  0  0  0  0  0
    8.4993    4.2101    0.0000 O   0  0  0  0  0  0  0  0  0  0  0  0
    4.6783   -3.5149    0.0000 N   0  0  0  0  0  0  0  0  0  0  0  0
    6.2781    0.2018    0.0000 N   0  0  0  0  0  0  0  0  0  0  0  0
    9.7884    5.3669    0.0000 N   0  0  0  0  0  0  0  0  0  0  0  0
    4.6783   -1.9054    0.0000 C   0  0  0  0  0  0  0  0  0  0  0  0
    3.7320   -2.2101    0.0000 C   0  0  0  0  0  0  0  0  0  0  0  0
    3.7320   -3.2101    0.0000 C   0  0  0  0  0  0  0  0  0  0  0  0
    4.9889   -0.9549    0.0000 C   0  0  0  0  0  0  0  0  0  0  0  0
    5.2619   -2.7101    0.0000 C   0  0  0  0  0  0  0  0  0  0  0  0
    5.9674   -0.7487    0.0000 C   0  0  0  0  0  0  0  0  0  0  0  0
    4.9889   -4.4654    0.0000 C   0  0  0  0  0  0  0  0  0  0  0  0
    2.8660   -1.7101    0.0000 C   0  0  0  0  0  0  0  0  0  0  0  0
    2.8660   -3.7101    0.0000 C   0  0  0  0  0  0  0  0  0  0  0  0
    7.2566    0.4081    0.0000 C   0  0  0  0  0  0  0  0  0  0  0  0
    5.9674   -4.6716    0.0000 C   0  0  0  0  0  0  0  0  0  0  0  0
    2.0000   -2.2101    0.0000 C   0  0  0  0  0  0  0  0  0  0  0  0
    7.5673    1.3586    0.0000 C   0  0  0  0  0  0  0  0  0  0  0  0
    2.0000   -3.2101    0.0000 C   0  0  0  0  0  0  0  0  0  0  0  0
    8.5458    1.5648    0.0000 C   0  0  0  0  0  0  0  0  0  0  0  0
    6.2781   -5.6221    0.0000 C   0  0  0  0  0  0  0  0  0  0  0  0
    6.6353   -3.9273    0.0000 C   0  0  0  0  0  0  0  0  0  0  0  0
    7.2566   -5.8284    0.0000 C   0  0  0  0  0  0  0  0  0  0  0  0
    7.6138   -4.1335    0.0000 C   0  0  0  0  0  0  0  0  0  0  0  0
    7.9244   -5.0841    0.0000 C   0  0  0  0  0  0  0  0  0  0  0  0
    9.8349    2.7215    0.0000 C   0  0  0  0  0  0  0  0  0  0  0  0
   10.1456    3.6721    0.0000 C   0  0  0  0  0  0  0  0  0  0  0  0
   10.5028    1.9772    0.0000 C   0  0  0  0  0  0  0  0  0  0  0  0
   11.1241    3.8783    0.0000 C   0  0  0  0  0  0  0  0  0  0  0  0
   11.4813    2.1835    0.0000 C   0  0  0  0  0  0  0  0  0  0  0  0
   11.7920    3.1340    0.0000 C   0  0  0  0  0  0  0  0  0  0  0  0
    9.4778    4.4164    0.0000 C   0  0  0  0  0  0  0  0  0  0  0  0
    4.9684   -0.3352    0.0000 H   0  0  0  0  0  0  0  0  0  0  0  0
    4.3751   -0.8675    0.0000 H   0  0  0  0  0  0  0  0  0  0  0  0
    5.8819   -2.7101    0.0000 H   0  0  0  0  0  0  0  0  0  0  0  0
    5.9880   -1.3683    0.0000 H   0  0  0  0  0  0  0  0  0  0  0  0
    6.5812   -0.8360    0.0000 H   0  0  0  0  0  0  0  0  0  0  0  0
    4.3751   -4.5527    0.0000 H   0  0  0  0  0  0  0  0  0  0  0  0
    4.9684   -5.0851    0.0000 H   0  0  0  0  0  0  0  0  0  0  0  0
    2.8660   -1.0901    0.0000 H   0  0  0  0  0  0  0  0  0  0  0  0
    2.8660   -4.3301    0.0000 H   0  0  0  0  0  0  0  0  0  0  0  0
    5.8640    0.6633    0.0000 H   0  0  0  0  0  0  0  0  0  0  0  0
    7.2772   -0.2116    0.0000 H   0  0  0  0  0  0  0  0  0  0  0  0
    7.8704    0.3207    0.0000 H   0  0  0  0  0  0  0  0  0  0  0  0
    7.5467    1.9782    0.0000 H   0  0  0  0  0  0  0  0  0  0  0  0
    6.9534    1.4459    0.0000 H   0  0  0  0  0  0  0  0  0  0  0  0
    1.4631   -1.9001    0.0000 H   0  0  0  0  0  0  0  0  0  0  0  0
    1.4631   -3.5201    0.0000 H   0  0  0  0  0  0  0  0  0  0  0  0
    8.5663    0.9451    0.0000 H   0  0  0  0  0  0  0  0  0  0  0  0
    9.1596    1.4775    0.0000 H   0  0  0  0  0  0  0  0  0  0  0  0
    5.8640   -6.0836    0.0000 H   0  0  0  0  0  0  0  0  0  0  0  0
    6.4427   -3.3380    0.0000 H   0  0  0  0  0  0  0  0  0  0  0  0
    7.4492   -6.4177    0.0000 H   0  0  0  0  0  0  0  0  0  0  0  0
    8.0279   -3.6721    0.0000 H   0  0  0  0  0  0  0  0  0  0  0  0
    8.5311   -5.2119    0.0000 H   0  0  0  0  0  0  0  0  0  0  0  0
   10.3102    1.3879    0.0000 H   0  0  0  0  0  0  0  0  0  0  0  0
   11.3167    4.4676    0.0000 H   0  0  0  0  0  0  0  0  0  0  0  0
   11.8954    1.7220    0.0000 H   0  0  0  0  0  0  0  0  0  0  0  0
   12.3986    3.2618    0.0000 H   0  0  0  0  0  0  0  0  0  0  0  0
    9.3744    5.8284    0.0000 H   0  0  0  0  0  0  0  0  0  0  0  0
   10.3951    5.4947    0.0000 H   0  0  0  0  0  0  0  0  0  0  0  0
  1 20  1  0  0  0  0
  1 26  1  0  0  0  0
  2 32  2  0  0  0  0
  3  8  1  0  0  0  0
  3 10  1  0  0  0  0
  3 12  1  0  0  0  0
  4 11  1  0  0  0  0
  4 15  1  0  0  0  0
  4 42  1  0  0  0  0
  5 32  1  0  0  0  0
  5 60  1  0  0  0  0
  5 61  1  0  0  0  0
  6  7  1  0  0  0  0
  6  9  1  0  0  0  0
  6 10  2  0  0  0  0
  7  8  1  0  0  0  0
  7 13  2  0  0  0  0
  8 14  2  0  0  0  0
  9 11  1  0  0  0  0
  9 33  1  0  0  0  0
  9 34  1  0  0  0  0
 10 35  1  0  0  0  0
 11 36  1  0  0  0  0
 11 37  1  0  0  0  0
 12 16  1  0  0  0  0
 12 38  1  0  0  0  0
 12 39  1  0  0  0  0
 13 17  1  0  0  0  0
 13 40  1  0  0  0  0
 14 19  1  0  0  0  0
 14 41  1  0  0  0  0
 15 18  1  0  0  0  0
 15 43  1  0  0  0  0
 15 44  1  0  0  0  0
 16 21  2  0  0  0  0
 16 22  1  0  0  0  0
 17 19  2  0  0  0  0
 17 47  1  0  0  0  0
 18 20  1  0  0  0  0
 18 45  1  0  0  0  0
 18 46  1  0  0  0  0
 19 48  1  0  0  0  0
 20 49  1  0  0  0  0
 20 50  1  0  0  0  0
 21 23  1  0  0  0  0
 21 51  1  0  0  0  0
 22 24  2  0  0  0  0
 22 52  1  0  0  0  0
 23 25  2  0  0  0  0
 23 53  1  0  0  0  0
 24 25  1  0  0  0  0
 24 54  1  0  0  0  0
 25 55  1  0  0  0  0
 26 27  1  0  0  0  0
 26 28  2  0  0  0  0
 27 29  2  0  0  0  0
 27 32  1  0  0  0  0
 28 30  1  0  0  0  0
 28 56  1  0  0  0  0
 29 31  1  0  0  0  0
 29 57  1  0  0  0  0
 30 31  2  0  0  0  0
 30 58  1  0  0  0  0
 31 59  1  0  0  0  0
M  END
> <PUBCHEM_COMPOUND_CID>
118731512

> <PUBCHEM_COMPOUND_CANONICALIZED>
1

> <PUBCHEM_CACTVS_COMPLEXITY>
565

> <PUBCHEM_CACTVS_HBOND_ACCEPTOR>
3

> <PUBCHEM_CACTVS_HBOND_DONOR>
2

> <PUBCHEM_CACTVS_ROTATABLE_BOND>
11

> <PUBCHEM_CACTVS_SUBSKEYS>
AAADceB7MAAAAAAAAAAAAAAAAAAAAWAAAAAwYMAAAAAAAFgB9AAAHgAQAAAADAzhngY8xvPMFACoAzV3VACCiCA1IiAI2KE+bNgMJvbEtZuGOWjm8BHI6YeYyOCOgAAAAAAKAAAAAAAAABQAAAAAAAAAAA==

> <PUBCHEM_IUPAC_OPENEYE_NAME>
2-[3-[2-(1-benzylindol-3-yl)ethylamino]propoxy]benzamide

> <PUBCHEM_IUPAC_CAS_NAME>
2-[3-[2-[1-(phenylmethyl)-3-indolyl]ethylamino]propoxy]benzamide

> <PUBCHEM_IUPAC_NAME_MARKUP>
2-[3-[2-(1-benzylindol-3-yl)ethylamino]propoxy]benzamide

> <PUBCHEM_IUPAC_NAME>
2-[3-[2-(1-benzylindol-3-yl)ethylamino]propoxy]benzamide

> <PUBCHEM_IUPAC_SYSTEMATIC_NAME>
2-[3-[2-[1-(phenylmethyl)indol-3-yl]ethylamino]propoxy]benzamide

> <PUBCHEM_IUPAC_TRADITIONAL_NAME>
2-[3-[2-(1-benzylindol-3-yl)ethylamino]propoxy]benzamide

> <PUBCHEM_IUPAC_INCHI>
InChI=1S/C27H29N3O2/c28-27(31)24-12-5-7-14-26(24)32-18-8-16-29-17-15-22-20-30(19-21-9-2-1-3-10-21)25-13-6-4-11-23(22)25/h1-7,9-14,20,29H,8,15-19H2,(H2,28,31)

> <PUBCHEM_IUPAC_INCHIKEY>
AXEPKFMEASEADG-UHFFFAOYSA-N

> <PUBCHEM_XLOGP3_AA>
4.3

> <PUBCHEM_EXACT_MASS>
427.22597718

> <PUBCHEM_MOLECULAR_FORMULA>
C27H29N3O2

> <PUBCHEM_MOLECULAR_WEIGHT>
427.5

> <PUBCHEM_OPENEYE_CAN_SMILES>
C1=CC=C(C=C1)CN2C=C(C3=CC=CC=C32)CCNCCCOC4=CC=CC=C4C(=O)N

> <PUBCHEM_OPENEYE_ISO_SMILES>
C1=CC=C(C=C1)CN2C=C(C3=CC=CC=C32)CCNCCCOC4=CC=CC=C4C(=O)N

> <PUBCHEM_CACTVS_TPSA>
69.3

> <PUBCHEM_MONOISOTOPIC_WEIGHT>
427.22597718

> <PUBCHEM_TOTAL_CHARGE>
0

> <PUBCHEM_HEAVY_ATOM_COUNT>
32

> <PUBCHEM_ATOM_DEF_STEREO_COUNT>
0

> <PUBCHEM_ATOM_UDEF_STEREO_COUNT>
0

> <PUBCHEM_BOND_DEF_STEREO_COUNT>
0

> <PUBCHEM_BOND_UDEF_STEREO_COUNT>
0

> <PUBCHEM_ISOTOPIC_ATOM_COUNT>
0

> <PUBCHEM_COMPONENT_COUNT>
1

> <PUBCHEM_CACTVS_TAUTO_COUNT>
-1

> <PUBCHEM_COORDINATE_TYPE>
1
5
255

> <PUBCHEM_BONDANNOTATIONS>
13  17  8
14  19  8
16  21  8
16  22  8
17  19  8
21  23  8
22  24  8
23  25  8
24  25  8
26  27  8
26  28  8
27  29  8
28  30  8
29  31  8
3  10  8
3  8  8
30  31  8
6  10  8
6  7  8
7  13  8
7  8  8
8  14  8

$$$$
