71724965
  -OEChem-09292322012D

 53 56  0     0  0  0  0  0  0999 V2000
    6.3301   -1.3030    0.0000 O   0  0  0  0  0  0  0  0  0  0  0  0
   11.5263    1.6970    0.0000 O   0  0  0  0  0  0  0  0  0  0  0  0
    2.8660    0.6970    0.0000 O   0  0  0  0  0  0  0  0  0  0  0  0
    8.9282   -0.8030    0.0000 N   0  0  0  0  0  0  0  0  0  0  0  0
   10.6603    0.1970    0.0000 N   0  0  0  0  0  0  0  0  0  0  0  0
   15.0706   -1.1077    0.0000 N   0  0  0  0  0  0  0  0  0  0  0  0
    9.7942   -1.3030    0.0000 C   0  0  0  0  0  0  0  0  0  0  0  0
    8.9282    0.1970    0.0000 C   0  0  0  0  0  0  0  0  0  0  0  0
   10.6603   -0.8030    0.0000 C   0  0  0  0  0  0  0  0  0  0  0  0
    9.7942    0.6970    0.0000 C   0  0  0  0  0  0  0  0  0  0  0  0
    8.0622   -1.3030    0.0000 C   0  0  0  0  0  0  0  0  0  0  0  0
   11.5263    0.6970    0.0000 C   0  0  0  0  0  0  0  0  0  0  0  0
    7.1962   -0.8030    0.0000 C   0  0  0  0  0  0  0  0  0  0  0  0
   12.3923    0.1970    0.0000 C   0  0  0  0  0  0  0  0  0  0  0  0
   13.2583    0.6970    0.0000 C   0  0  0  0  0  0  0  0  0  0  0  0
   12.3923   -0.8030    0.0000 C   0  0  0  0  0  0  0  0  0  0  0  0
   14.1244    0.1970    0.0000 C   0  0  0  0  0  0  0  0  0  0  0  0
   14.1244   -0.8030    0.0000 C   0  0  0  0  0  0  0  0  0  0  0  0
   13.2583   -1.3030    0.0000 C   0  0  0  0  0  0  0  0  0  0  0  0
   15.0706    0.5018    0.0000 C   0  0  0  0  0  0  0  0  0  0  0  0
    5.4641   -0.8030    0.0000 C   0  0  0  0  0  0  0  0  0  0  0  0
   15.6542   -0.3030    0.0000 C   0  0  0  0  0  0  0  0  0  0  0  0
    5.4641    0.1970    0.0000 C   0  0  0  0  0  0  0  0  0  0  0  0
    4.5981   -1.3030    0.0000 C   0  0  0  0  0  0  0  0  0  0  0  0
    4.5981    0.6970    0.0000 C   0  0  0  0  0  0  0  0  0  0  0  0
    3.7320   -0.8030    0.0000 C   0  0  0  0  0  0  0  0  0  0  0  0
    3.7320    0.1970    0.0000 C   0  0  0  0  0  0  0  0  0  0  0  0
    2.0000    0.1970    0.0000 C   0  0  0  0  0  0  0  0  0  0  0  0
    9.3957   -1.7779    0.0000 H   0  0  0  0  0  0  0  0  0  0  0  0
   10.1928   -1.7779    0.0000 H   0  0  0  0  0  0  0  0  0  0  0  0
    8.7162    0.7796    0.0000 H   0  0  0  0  0  0  0  0  0  0  0  0
    8.3176    0.0894    0.0000 H   0  0  0  0  0  0  0  0  0  0  0  0
   10.8723   -1.3856    0.0000 H   0  0  0  0  0  0  0  0  0  0  0  0
   11.2708   -0.6953    0.0000 H   0  0  0  0  0  0  0  0  0  0  0  0
   10.1928    1.1720    0.0000 H   0  0  0  0  0  0  0  0  0  0  0  0
    9.3957    1.1720    0.0000 H   0  0  0  0  0  0  0  0  0  0  0  0
    7.6636   -1.7779    0.0000 H   0  0  0  0  0  0  0  0  0  0  0  0
    8.4607   -1.7779    0.0000 H   0  0  0  0  0  0  0  0  0  0  0  0
    7.5947   -0.3280    0.0000 H   0  0  0  0  0  0  0  0  0  0  0  0
    6.7976   -0.3280    0.0000 H   0  0  0  0  0  0  0  0  0  0  0  0
   13.2583    1.3170    0.0000 H   0  0  0  0  0  0  0  0  0  0  0  0
   11.8554   -1.1130    0.0000 H   0  0  0  0  0  0  0  0  0  0  0  0
   13.2583   -1.9230    0.0000 H   0  0  0  0  0  0  0  0  0  0  0  0
   15.2632    1.0911    0.0000 H   0  0  0  0  0  0  0  0  0  0  0  0
   15.2632   -1.6970    0.0000 H   0  0  0  0  0  0  0  0  0  0  0  0
   16.2742   -0.3030    0.0000 H   0  0  0  0  0  0  0  0  0  0  0  0
    6.0010    0.5070    0.0000 H   0  0  0  0  0  0  0  0  0  0  0  0
    4.5981   -1.9230    0.0000 H   0  0  0  0  0  0  0  0  0  0  0  0
    4.5981    1.3170    0.0000 H   0  0  0  0  0  0  0  0  0  0  0  0
    3.1951   -1.1130    0.0000 H   0  0  0  0  0  0  0  0  0  0  0  0
    1.6900    0.7340    0.0000 H   0  0  0  0  0  0  0  0  0  0  0  0
    1.4631   -0.1130    0.0000 H   0  0  0  0  0  0  0  0  0  0  0  0
    2.3100   -0.3399    0.0000 H   0  0  0  0  0  0  0  0  0  0  0  0
  1 13  1  0  0  0  0
  1 21  1  0  0  0  0
  2 12  2  0  0  0  0
  3 27  1  0  0  0  0
  3 28  1  0  0  0  0
  4  7  1  0  0  0  0
  4  8  1  0  0  0  0
  4 11  1  0  0  0  0
  5  9  1  0  0  0  0
  5 10  1  0  0  0  0
  5 12  1  0  0  0  0
  6 18  1  0  0  0  0
  6 22  1  0  0  0  0
  6 45  1  0  0  0  0
  7  9  1  0  0  0  0
  7 29  1  0  0  0  0
  7 30  1  0  0  0  0
  8 10  1  0  0  0  0
  8 31  1  0  0  0  0
  8 32  1  0  0  0  0
  9 33  1  0  0  0  0
  9 34  1  0  0  0  0
 10 35  1  0  0  0  0
 10 36  1  0  0  0  0
 11 13  1  0  0  0  0
 11 37  1  0  0  0  0
 11 38  1  0  0  0  0
 12 14  1  0  0  0  0
 13 39  1  0  0  0  0
 13 40  1  0  0  0  0
 14 15  2  0  0  0  0
 14 16  1  0  0  0  0
 15 17  1  0  0  0  0
 15 41  1  0  0  0  0
 16 19  2  0  0  0  0
 16 42  1  0  0  0  0
 17 18  2  0  0  0  0
 17 20  1  0  0  0  0
 18 19  1  0  0  0  0
 19 43  1  0  0  0  0
 20 22  2  0  0  0  0
 20 44  1  0  0  0  0
 21 23  2  0  0  0  0
 21 24  1  0  0  0  0
 22 46  1  0  0  0  0
 23 25  1  0  0  0  0
 23 47  1  0  0  0  0
 24 26  2  0  0  0  0
 24 48  1  0  0  0  0
 25 27  2  0  0  0  0
 25 49  1  0  0  0  0
 26 27  1  0  0  0  0
 26 50  1  0  0  0  0
 28 51  1  0  0  0  0
 28 52  1  0  0  0  0
 28 53  1  0  0  0  0
M  END
> <PUBCHEM_COMPOUND_CID>
71724965

> <PUBCHEM_COMPOUND_CANONICALIZED>
1

> <PUBCHEM_CACTVS_COMPLEXITY>
501

> <PUBCHEM_CACTVS_HBOND_ACCEPTOR>
4

> <PUBCHEM_CACTVS_HBOND_DONOR>
1

> <PUBCHEM_CACTVS_ROTATABLE_BOND>
6

> <PUBCHEM_CACTVS_SUBSKEYS>
AAADceB7MAAAAAAAAAAAAAAAAAAAAWAAAAA8YIAAAAAAAFgB9AAAHgAQAAAADAzhngY+xvPJlACoAzV3VACCiCA1IiAI2aE+bNgOZvLEtZuXOSjk1hHY6YfYycCeCQACAAACAAASAAQAAAQAAAAAAAAAAA==

> <PUBCHEM_IUPAC_OPENEYE_NAME>
1H-indol-5-yl-[4-[2-(4-methoxyphenoxy)ethyl]piperazin-1-yl]methanone

> <PUBCHEM_IUPAC_CAS_NAME>
1H-indol-5-yl-[4-[2-(4-methoxyphenoxy)ethyl]-1-piperazinyl]methanone

> <PUBCHEM_IUPAC_NAME_MARKUP>
1<I>H</I>-indol-5-yl-[4-[2-(4-methoxyphenoxy)ethyl]piperazin-1-yl]methanone

> <PUBCHEM_IUPAC_NAME>
1H-indol-5-yl-[4-[2-(4-methoxyphenoxy)ethyl]piperazin-1-yl]methanone

> <PUBCHEM_IUPAC_SYSTEMATIC_NAME>
1H-indol-5-yl-[4-[2-(4-methoxyphenoxy)ethyl]piperazin-1-yl]methanone

> <PUBCHEM_IUPAC_TRADITIONAL_NAME>
1H-indol-5-yl-[4-[2-(4-methoxyphenoxy)ethyl]piperazino]methanone

> <PUBCHEM_IUPAC_INCHI>
InChI=1S/C22H25N3O3/c1-27-19-3-5-20(6-4-19)28-15-14-24-10-12-25(13-11-24)22(26)18-2-7-21-17(16-18)8-9-23-21/h2-9,16,23H,10-15H2,1H3

> <PUBCHEM_IUPAC_INCHIKEY>
FOHGNVLGHIBZAX-UHFFFAOYSA-N

> <PUBCHEM_XLOGP3_AA>
3

> <PUBCHEM_EXACT_MASS>
379.18959167

> <PUBCHEM_MOLECULAR_FORMULA>
C22H25N3O3

> <PUBCHEM_MOLECULAR_WEIGHT>
379.5

> <PUBCHEM_OPENEYE_CAN_SMILES>
COC1=CC=C(C=C1)OCCN2CCN(CC2)C(=O)C3=CC4=C(C=C3)NC=C4

> <PUBCHEM_OPENEYE_ISO_SMILES>
COC1=CC=C(C=C1)OCCN2CCN(CC2)C(=O)C3=CC4=C(C=C3)NC=C4

> <PUBCHEM_CACTVS_TPSA>
57.8

> <PUBCHEM_MONOISOTOPIC_WEIGHT>
379.18959167

> <PUBCHEM_TOTAL_CHARGE>
0

> <PUBCHEM_HEAVY_ATOM_COUNT>
28

> <PUBCHEM_ATOM_DEF_STEREO_COUNT>
0

> <PUBCHEM_ATOM_UDEF_STEREO_COUNT>
0

> <PUBCHEM_BOND_DEF_STEREO_COUNT>
0

> <PUBCHEM_BOND_UDEF_STEREO_COUNT>
0

> <PUBCHEM_ISOTOPIC_ATOM_COUNT>
0

> <PUBCHEM_COMPONENT_COUNT>
1

> <PUBCHEM_CACTVS_TAUTO_COUNT>
-1

> <PUBCHEM_COORDINATE_TYPE>
1
5
255

> <PUBCHEM_BONDANNOTATIONS>
14  15  8
14  16  8
15  17  8
16  19  8
17  18  8
17  20  8
18  19  8
20  22  8
21  23  8
21  24  8
23  25  8
24  26  8
25  27  8
26  27  8
6  18  8
6  22  8

$$$$
