11555971
  -OEChem-09292322492D

 78 84  0     1  0  0  0  0  0999 V2000
    9.7062    1.3069    0.0000 S   0  0  0  0  0  0  0  0  0  0  0  0
    4.9887   -5.0094    0.0000 O   0  0  0  0  0  0  0  0  0  0  0  0
    6.7062   -0.4252    0.0000 N   0  0  3  0  0  0  0  0  0  0  0  0
    3.5000   -5.9785    0.0000 N   0  0  0  0  0  0  0  0  0  0  0  0
    3.5949   -4.2047    0.0000 N   0  0  0  0  0  0  0  0  0  0  0  0
   11.2008    2.2774    0.0000 N   0  0  0  0  0  0  0  0  0  0  0  0
    9.7995    3.0865    0.0000 N   0  0  0  0  0  0  0  0  0  0  0  0
   10.5426    3.7556    0.0000 N   0  0  0  0  0  0  0  0  0  0  0  0
   13.4651    6.0977    0.0000 N   0  0  0  0  0  0  0  0  0  0  0  0
    7.2598   -1.2348    0.0000 C   0  0  0  0  0  0  0  0  0  0  0  0
    5.7283   -0.3505    0.0000 C   0  0  0  0  0  0  0  0  0  0  0  0
    6.9745   -2.1732    0.0000 C   0  0  0  0  0  0  0  0  0  0  0  0
    5.0583   -1.0668    0.0000 C   0  0  0  0  0  0  0  0  0  0  0  0
    6.0640   -2.5376    0.0000 C   0  0  0  0  0  0  0  0  0  0  0  0
    5.1979   -2.0376    0.0000 C   0  0  0  0  0  0  0  0  0  0  0  0
    2.5000   -5.9785    0.0000 C   0  0  0  0  0  0  0  0  0  0  0  0
    4.0000   -6.8445    0.0000 C   0  0  0  0  0  0  0  0  0  0  0  0
    2.0000   -6.8445    0.0000 C   0  0  0  0  0  0  0  0  0  0  0  0
    3.5000   -7.7106    0.0000 C   0  0  0  0  0  0  0  0  0  0  0  0
    2.5000   -7.7106    0.0000 C   0  0  0  0  0  0  0  0  0  0  0  0
    7.2062    0.4409    0.0000 C   0  0  0  0  0  0  0  0  0  0  0  0
    4.0000   -5.1125    0.0000 C   0  0  0  0  0  0  0  0  0  0  0  0
    6.0640   -3.5376    0.0000 C   0  0  0  0  0  0  0  0  0  0  0  0
    4.3319   -2.5376    0.0000 C   0  0  0  0  0  0  0  0  0  0  0  0
    5.1979   -4.0376    0.0000 C   0  0  0  0  0  0  0  0  0  0  0  0
    4.3319   -3.5376    0.0000 C   0  0  0  0  0  0  0  0  0  0  0  0
    8.2062    0.4409    0.0000 C   0  0  0  0  0  0  0  0  0  0  0  0
    8.7062    1.3069    0.0000 C   0  0  0  0  0  0  0  0  0  0  0  0
   10.2062    2.1729    0.0000 C   0  0  0  0  0  0  0  0  0  0  0  0
   11.4087    3.2556    0.0000 C   0  0  0  0  0  0  0  0  0  0  0  0
   12.3222    3.6623    0.0000 C   0  0  0  0  0  0  0  0  0  0  0  0
   12.4267    4.6569    0.0000 C   0  0  0  0  0  0  0  0  0  0  0  0
   11.8699    1.5343    0.0000 C   0  0  0  0  0  0  0  0  0  0  0  0
   13.3403    5.0636    0.0000 C   0  0  0  0  0  0  0  0  0  0  0  0
   13.1312    3.0746    0.0000 C   0  0  0  0  0  0  0  0  0  0  0  0
   11.5747    5.2560    0.0000 C   0  0  0  0  0  0  0  0  0  0  0  0
   14.1493    4.4758    0.0000 C   0  0  0  0  0  0  0  0  0  0  0  0
   14.0448    3.4813    0.0000 C   0  0  0  0  0  0  0  0  0  0  0  0
   11.6756    6.2928    0.0000 C   0  0  0  0  0  0  0  0  0  0  0  0
   12.6272    6.7164    0.0000 C   0  0  0  0  0  0  0  0  0  0  0  0
   12.7355    7.7106    0.0000 C   0  0  0  0  0  0  0  0  0  0  0  0
    7.7977   -1.5431    0.0000 H   0  0  0  0  0  0  0  0  0  0  0  0
    7.6805   -0.7793    0.0000 H   0  0  0  0  0  0  0  0  0  0  0  0
    5.9124    0.2415    0.0000 H   0  0  0  0  0  0  0  0  0  0  0  0
    5.1923   -0.0389    0.0000 H   0  0  0  0  0  0  0  0  0  0  0  0
    7.0705   -2.7857    0.0000 H   0  0  0  0  0  0  0  0  0  0  0  0
    7.5930   -2.2164    0.0000 H   0  0  0  0  0  0  0  0  0  0  0  0
    4.7116   -0.5528    0.0000 H   0  0  0  0  0  0  0  0  0  0  0  0
    4.4798   -1.2900    0.0000 H   0  0  0  0  0  0  0  0  0  0  0  0
    2.6077   -5.3679    0.0000 H   0  0  0  0  0  0  0  0  0  0  0  0
    1.9174   -5.7665    0.0000 H   0  0  0  0  0  0  0  0  0  0  0  0
    4.4750   -7.2431    0.0000 H   0  0  0  0  0  0  0  0  0  0  0  0
    4.4750   -6.4460    0.0000 H   0  0  0  0  0  0  0  0  0  0  0  0
    1.5250   -6.4460    0.0000 H   0  0  0  0  0  0  0  0  0  0  0  0
    1.5250   -7.2431    0.0000 H   0  0  0  0  0  0  0  0  0  0  0  0
    3.3923   -8.3211    0.0000 H   0  0  0  0  0  0  0  0  0  0  0  0
    4.0826   -7.9226    0.0000 H   0  0  0  0  0  0  0  0  0  0  0  0
    1.9174   -7.9226    0.0000 H   0  0  0  0  0  0  0  0  0  0  0  0
    2.6077   -8.3211    0.0000 H   0  0  0  0  0  0  0  0  0  0  0  0
    7.3139    1.0514    0.0000 H   0  0  0  0  0  0  0  0  0  0  0  0
    6.6236    0.6529    0.0000 H   0  0  0  0  0  0  0  0  0  0  0  0
    6.6009   -3.8476    0.0000 H   0  0  0  0  0  0  0  0  0  0  0  0
    3.7950   -2.2276    0.0000 H   0  0  0  0  0  0  0  0  0  0  0  0
    8.0986   -0.1697    0.0000 H   0  0  0  0  0  0  0  0  0  0  0  0
    8.7888    0.2288    0.0000 H   0  0  0  0  0  0  0  0  0  0  0  0
    8.8139    1.9175    0.0000 H   0  0  0  0  0  0  0  0  0  0  0  0
    8.1236    1.5190    0.0000 H   0  0  0  0  0  0  0  0  0  0  0  0
   11.4091    1.1194    0.0000 H   0  0  0  0  0  0  0  0  0  0  0  0
   12.2847    1.0736    0.0000 H   0  0  0  0  0  0  0  0  0  0  0  0
   12.3306    1.9492    0.0000 H   0  0  0  0  0  0  0  0  0  0  0  0
   13.0664    2.4580    0.0000 H   0  0  0  0  0  0  0  0  0  0  0  0
   11.0113    4.9973    0.0000 H   0  0  0  0  0  0  0  0  0  0  0  0
   14.7157    4.7280    0.0000 H   0  0  0  0  0  0  0  0  0  0  0  0
   14.5464    3.1169    0.0000 H   0  0  0  0  0  0  0  0  0  0  0  0
   11.1726    6.6553    0.0000 H   0  0  0  0  0  0  0  0  0  0  0  0
   13.3519    7.6434    0.0000 H   0  0  0  0  0  0  0  0  0  0  0  0
   12.8027    8.3269    0.0000 H   0  0  0  0  0  0  0  0  0  0  0  0
   12.1192    7.7778    0.0000 H   0  0  0  0  0  0  0  0  0  0  0  0
  1 28  1  0  0  0  0
  1 29  1  0  0  0  0
  2 22  1  0  0  0  0
  2 25  1  0  0  0  0
  3 10  1  0  0  0  0
  3 11  1  0  0  0  0
  3 21  1  0  0  0  0
  4 16  1  0  0  0  0
  4 17  1  0  0  0  0
  4 22  1  0  0  0  0
  5 22  2  0  0  0  0
  5 26  1  0  0  0  0
  6 29  1  0  0  0  0
  6 30  1  0  0  0  0
  6 33  1  0  0  0  0
  7  8  1  0  0  0  0
  7 29  2  0  0  0  0
  8 30  2  0  0  0  0
  9 34  1  0  0  0  0
  9 40  2  0  0  0  0
 10 12  1  0  0  0  0
 10 42  1  0  0  0  0
 10 43  1  0  0  0  0
 11 13  1  0  0  0  0
 11 44  1  0  0  0  0
 11 45  1  0  0  0  0
 12 14  1  0  0  0  0
 12 46  1  0  0  0  0
 12 47  1  0  0  0  0
 13 15  1  0  0  0  0
 13 48  1  0  0  0  0
 13 49  1  0  0  0  0
 14 15  1  0  0  0  0
 14 23  2  0  0  0  0
 15 24  2  0  0  0  0
 16 18  1  0  0  0  0
 16 50  1  0  0  0  0
 16 51  1  0  0  0  0
 17 19  1  0  0  0  0
 17 52  1  0  0  0  0
 17 53  1  0  0  0  0
 18 20  1  0  0  0  0
 18 54  1  0  0  0  0
 18 55  1  0  0  0  0
 19 20  1  0  0  0  0
 19 56  1  0  0  0  0
 19 57  1  0  0  0  0
 20 58  1  0  0  0  0
 20 59  1  0  0  0  0
 21 27  1  0  0  0  0
 21 60  1  0  0  0  0
 21 61  1  0  0  0  0
 23 25  1  0  0  0  0
 23 62  1  0  0  0  0
 24 26  1  0  0  0  0
 24 63  1  0  0  0  0
 25 26  2  0  0  0  0
 27 28  1  0  0  0  0
 27 64  1  0  0  0  0
 27 65  1  0  0  0  0
 28 66  1  0  0  0  0
 28 67  1  0  0  0  0
 30 31  1  0  0  0  0
 31 32  2  0  0  0  0
 31 35  1  0  0  0  0
 32 34  1  0  0  0  0
 32 36  1  0  0  0  0
 33 68  1  0  0  0  0
 33 69  1  0  0  0  0
 33 70  1  0  0  0  0
 34 37  2  0  0  0  0
 35 38  2  0  0  0  0
 35 71  1  0  0  0  0
 36 39  2  0  0  0  0
 36 72  1  0  0  0  0
 37 38  1  0  0  0  0
 37 73  1  0  0  0  0
 38 74  1  0  0  0  0
 39 40  1  0  0  0  0
 39 75  1  0  0  0  0
 40 41  1  0  0  0  0
 41 76  1  0  0  0  0
 41 77  1  0  0  0  0
 41 78  1  0  0  0  0
M  END
> <PUBCHEM_COMPOUND_CID>
11555971

> <PUBCHEM_COMPOUND_CANONICALIZED>
1

> <PUBCHEM_CACTVS_COMPLEXITY>
847

> <PUBCHEM_CACTVS_HBOND_ACCEPTOR>
8

> <PUBCHEM_CACTVS_HBOND_DONOR>
0

> <PUBCHEM_CACTVS_ROTATABLE_BOND>
7

> <PUBCHEM_CACTVS_SUBSKEYS>
AAADcfB/oABAAAAAAAAAAAAAAAAAAWLAAAA8eIEABYAAAFix/gAAHgQIAAAADAzF3wSz1vcMFEiqA6ZydASS2CtvYrAd2CG/bNiOLvLkvbuNMShszhPY6aeY2fKOqAABQAASEABQAAKAACQgAAAAAAAAAA==

> <PUBCHEM_IUPAC_OPENEYE_NAME>
7-[3-[[4-methyl-5-(2-methyl-5-quinolyl)-1,2,4-triazol-3-yl]sulfanyl]propyl]-2-(1-piperidyl)-5,6,8,9-tetrahydrooxazolo[4,5-h][3]benzazepine

> <PUBCHEM_IUPAC_CAS_NAME>
7-[3-[[4-methyl-5-(2-methyl-5-quinolinyl)-1,2,4-triazol-3-yl]thio]propyl]-2-(1-piperidinyl)-5,6,8,9-tetrahydrooxazolo[4,5-h][3]benzazepine

> <PUBCHEM_IUPAC_NAME_MARKUP>
7-[3-[[4-methyl-5-(2-methylquinolin-5-yl)-1,2,4-triazol-3-yl]sulfanyl]propyl]-2-piperidin-1-yl-5,6,8,9-tetrahydro-[1,3]oxazolo[4,5-h][3]benzazepine

> <PUBCHEM_IUPAC_NAME>
7-[3-[[4-methyl-5-(2-methylquinolin-5-yl)-1,2,4-triazol-3-yl]sulfanyl]propyl]-2-piperidin-1-yl-5,6,8,9-tetrahydro-[1,3]oxazolo[4,5-h][3]benzazepine

> <PUBCHEM_IUPAC_SYSTEMATIC_NAME>
7-[3-[[4-methyl-5-(2-methylquinolin-5-yl)-1,2,4-triazol-3-yl]sulfanyl]propyl]-2-piperidin-1-yl-5,6,8,9-tetrahydro-[1,3]oxazolo[4,5-h][3]benzazepine

> <PUBCHEM_IUPAC_TRADITIONAL_NAME>
7-[3-[[4-methyl-5-(2-methyl-5-quinolyl)-1,2,4-triazol-3-yl]thio]propyl]-2-piperidino-5,6,8,9-tetrahydrooxazolo[4,5-h][3]benzazepine

> <PUBCHEM_IUPAC_INCHI>
InChI=1S/C32H37N7OS/c1-22-10-11-25-26(8-6-9-27(25)33-22)30-35-36-32(37(30)2)41-19-7-14-38-17-12-23-20-28-29(21-24(23)13-18-38)40-31(34-28)39-15-4-3-5-16-39/h6,8-11,20-21H,3-5,7,12-19H2,1-2H3

> <PUBCHEM_IUPAC_INCHIKEY>
QWRZAQFQULNINP-UHFFFAOYSA-N

> <PUBCHEM_XLOGP3_AA>
6.1

> <PUBCHEM_EXACT_MASS>
567.27803000

> <PUBCHEM_MOLECULAR_FORMULA>
C32H37N7OS

> <PUBCHEM_MOLECULAR_WEIGHT>
567.7

> <PUBCHEM_OPENEYE_CAN_SMILES>
CC1=NC2=CC=CC(=C2C=C1)C3=NN=C(N3C)SCCCN4CCC5=CC6=C(C=C5CC4)OC(=N6)N7CCCCC7

> <PUBCHEM_OPENEYE_ISO_SMILES>
CC1=NC2=CC=CC(=C2C=C1)C3=NN=C(N3C)SCCCN4CCC5=CC6=C(C=C5CC4)OC(=N6)N7CCCCC7

> <PUBCHEM_CACTVS_TPSA>
101

> <PUBCHEM_MONOISOTOPIC_WEIGHT>
567.27803000

> <PUBCHEM_TOTAL_CHARGE>
0

> <PUBCHEM_HEAVY_ATOM_COUNT>
41

> <PUBCHEM_ATOM_DEF_STEREO_COUNT>
0

> <PUBCHEM_ATOM_UDEF_STEREO_COUNT>
0

> <PUBCHEM_BOND_DEF_STEREO_COUNT>
0

> <PUBCHEM_BOND_UDEF_STEREO_COUNT>
0

> <PUBCHEM_ISOTOPIC_ATOM_COUNT>
0

> <PUBCHEM_COMPONENT_COUNT>
1

> <PUBCHEM_CACTVS_TAUTO_COUNT>
-1

> <PUBCHEM_COORDINATE_TYPE>
1
5
255

> <PUBCHEM_BONDANNOTATIONS>
14  15  8
14  23  8
15  24  8
2  22  8
2  25  8
23  25  8
24  26  8
25  26  8
31  32  8
31  35  8
32  34  8
32  36  8
34  37  8
35  38  8
36  39  8
37  38  8
39  40  8
5  22  8
5  26  8
6  29  8
6  30  8
7  29  8
7  8  8
8  30  8
9  34  8
9  40  8

$$$$
