24901416
  -OEChem-09292322042D

 62 65  0     1  0  0  0  0  0999 V2000
   10.7404   -1.5403    0.0000 S   0  0  0  0  0  0  0  0  0  0  0  0
    2.0000   -1.3450    0.0000 F   0  0  0  0  0  0  0  0  0  0  0  0
    9.7942    0.1550    0.0000 O   0  0  0  0  0  0  0  0  0  0  0  0
    8.9282   -4.3450    0.0000 O   0  0  0  0  0  0  0  0  0  0  0  0
   12.3241   -2.3450    0.0000 O   0  0  0  0  0  0  0  0  0  0  0  0
    8.0622    1.1550    0.0000 N   0  0  0  0  0  0  0  0  0  0  0  0
    4.5981    1.1550    0.0000 N   0  0  0  0  0  0  0  0  0  0  0  0
   10.7404   -3.1497    0.0000 N   0  0  0  0  0  0  0  0  0  0  0  0
    8.9282   -0.3450    0.0000 C   0  0  1  0  0  0  0  0  0  0  0  0
    7.1962    2.6550    0.0000 C   0  0  0  0  0  0  0  0  0  0  0  0
    8.0622    0.1550    0.0000 C   0  0  0  0  0  0  0  0  0  0  0  0
    7.1962    1.6550    0.0000 C   0  0  0  0  0  0  0  0  0  0  0  0
    6.3301    3.1550    0.0000 C   0  0  0  0  0  0  0  0  0  0  0  0
    8.9282   -1.3450    0.0000 C   0  0  0  0  0  0  0  0  0  0  0  0
    5.4641    2.6550    0.0000 C   0  0  0  0  0  0  0  0  0  0  0  0
    5.4641    1.6550    0.0000 C   0  0  0  0  0  0  0  0  0  0  0  0
    9.7942   -1.8450    0.0000 C   0  0  0  0  0  0  0  0  0  0  0  0
    9.7942   -2.8450    0.0000 C   0  0  0  0  0  0  0  0  0  0  0  0
    6.3301    4.1550    0.0000 C   0  0  0  0  0  0  0  0  0  0  0  0
    8.0622   -1.8450    0.0000 C   0  0  0  0  0  0  0  0  0  0  0  0
    4.5981    0.1550    0.0000 C   0  0  0  0  0  0  0  0  0  0  0  0
    4.5981    3.1550    0.0000 C   0  0  0  0  0  0  0  0  0  0  0  0
    3.7320   -0.3450    0.0000 C   0  0  0  0  0  0  0  0  0  0  0  0
    8.9282   -3.3450    0.0000 C   0  0  0  0  0  0  0  0  0  0  0  0
    8.0622   -2.8450    0.0000 C   0  0  0  0  0  0  0  0  0  0  0  0
    5.4641    4.6550    0.0000 C   0  0  0  0  0  0  0  0  0  0  0  0
    4.5981    4.1550    0.0000 C   0  0  0  0  0  0  0  0  0  0  0  0
    3.7320   -1.3450    0.0000 C   0  0  0  0  0  0  0  0  0  0  0  0
   11.3241   -2.3450    0.0000 C   0  0  0  0  0  0  0  0  0  0  0  0
    2.8660   -1.8450    0.0000 C   0  0  0  0  0  0  0  0  0  0  0  0
    4.5981   -1.8450    0.0000 C   0  0  0  0  0  0  0  0  0  0  0  0
    2.8660   -2.8450    0.0000 C   0  0  0  0  0  0  0  0  0  0  0  0
    4.5981   -2.8450    0.0000 C   0  0  0  0  0  0  0  0  0  0  0  0
    3.7320   -3.3450    0.0000 C   0  0  0  0  0  0  0  0  0  0  0  0
    9.4651   -0.6550    0.0000 H   0  0  0  0  0  0  0  0  0  0  0  0
    7.8067    2.5473    0.0000 H   0  0  0  0  0  0  0  0  0  0  0  0
    7.4082    3.2376    0.0000 H   0  0  0  0  0  0  0  0  0  0  0  0
    7.4516    0.2627    0.0000 H   0  0  0  0  0  0  0  0  0  0  0  0
    7.8501   -0.4276    0.0000 H   0  0  0  0  0  0  0  0  0  0  0  0
    6.5856    1.7627    0.0000 H   0  0  0  0  0  0  0  0  0  0  0  0
    6.9841    1.0724    0.0000 H   0  0  0  0  0  0  0  0  0  0  0  0
    8.5991    1.4650    0.0000 H   0  0  0  0  0  0  0  0  0  0  0  0
    5.6762    1.0724    0.0000 H   0  0  0  0  0  0  0  0  0  0  0  0
    6.0747    1.7627    0.0000 H   0  0  0  0  0  0  0  0  0  0  0  0
    7.5252   -1.5350    0.0000 H   0  0  0  0  0  0  0  0  0  0  0  0
    6.8671    4.4650    0.0000 H   0  0  0  0  0  0  0  0  0  0  0  0
    4.8101   -0.4276    0.0000 H   0  0  0  0  0  0  0  0  0  0  0  0
    5.2087    0.2627    0.0000 H   0  0  0  0  0  0  0  0  0  0  0  0
    4.0611    1.4650    0.0000 H   0  0  0  0  0  0  0  0  0  0  0  0
    4.0611    2.8450    0.0000 H   0  0  0  0  0  0  0  0  0  0  0  0
    3.5200    0.2376    0.0000 H   0  0  0  0  0  0  0  0  0  0  0  0
    3.1215   -0.4527    0.0000 H   0  0  0  0  0  0  0  0  0  0  0  0
    7.5252   -3.1550    0.0000 H   0  0  0  0  0  0  0  0  0  0  0  0
    5.4641    5.2750    0.0000 H   0  0  0  0  0  0  0  0  0  0  0  0
    4.0611    4.4650    0.0000 H   0  0  0  0  0  0  0  0  0  0  0  0
   10.9331   -3.7390    0.0000 H   0  0  0  0  0  0  0  0  0  0  0  0
    9.7942    0.7750    0.0000 H   0  0  0  0  0  0  0  0  0  0  0  0
    5.1350   -1.5350    0.0000 H   0  0  0  0  0  0  0  0  0  0  0  0
    8.3913   -4.6550    0.0000 H   0  0  0  0  0  0  0  0  0  0  0  0
    2.3291   -3.1550    0.0000 H   0  0  0  0  0  0  0  0  0  0  0  0
    5.1350   -3.1550    0.0000 H   0  0  0  0  0  0  0  0  0  0  0  0
    3.7320   -3.9650    0.0000 H   0  0  0  0  0  0  0  0  0  0  0  0
  1 17  1  0  0  0  0
  1 29  1  0  0  0  0
  2 30  1  0  0  0  0
  9  3  1  6  0  0  0
  3 57  1  0  0  0  0
  4 24  1  0  0  0  0
  4 59  1  0  0  0  0
  5 29  2  0  0  0  0
  6 11  1  0  0  0  0
  6 12  1  0  0  0  0
  6 42  1  0  0  0  0
  7 16  1  0  0  0  0
  7 21  1  0  0  0  0
  7 49  1  0  0  0  0
  8 18  1  0  0  0  0
  8 29  1  0  0  0  0
  8 56  1  0  0  0  0
  9 11  1  0  0  0  0
  9 14  1  0  0  0  0
  9 35  1  0  0  0  0
 10 12  1  0  0  0  0
 10 13  1  0  0  0  0
 10 36  1  0  0  0  0
 10 37  1  0  0  0  0
 11 38  1  0  0  0  0
 11 39  1  0  0  0  0
 12 40  1  0  0  0  0
 12 41  1  0  0  0  0
 13 15  1  0  0  0  0
 13 19  2  0  0  0  0
 14 17  2  0  0  0  0
 14 20  1  0  0  0  0
 15 16  1  0  0  0  0
 15 22  2  0  0  0  0
 16 43  1  0  0  0  0
 16 44  1  0  0  0  0
 17 18  1  0  0  0  0
 18 24  2  0  0  0  0
 19 26  1  0  0  0  0
 19 46  1  0  0  0  0
 20 25  2  0  0  0  0
 20 45  1  0  0  0  0
 21 23  1  0  0  0  0
 21 47  1  0  0  0  0
 21 48  1  0  0  0  0
 22 27  1  0  0  0  0
 22 50  1  0  0  0  0
 23 28  1  0  0  0  0
 23 51  1  0  0  0  0
 23 52  1  0  0  0  0
 24 25  1  0  0  0  0
 25 53  1  0  0  0  0
 26 27  2  0  0  0  0
 26 54  1  0  0  0  0
 27 55  1  0  0  0  0
 28 30  1  0  0  0  0
 28 31  2  0  0  0  0
 30 32  2  0  0  0  0
 31 33  1  0  0  0  0
 31 58  1  0  0  0  0
 32 34  1  0  0  0  0
 32 60  1  0  0  0  0
 33 34  2  0  0  0  0
 33 61  1  0  0  0  0
 34 62  1  0  0  0  0
M  END
> <PUBCHEM_COMPOUND_CID>
24901416

> <PUBCHEM_COMPOUND_CANONICALIZED>
1

> <PUBCHEM_CACTVS_COMPLEXITY>
644

> <PUBCHEM_CACTVS_HBOND_ACCEPTOR>
7

> <PUBCHEM_CACTVS_HBOND_DONOR>
5

> <PUBCHEM_CACTVS_ROTATABLE_BOND>
11

> <PUBCHEM_CACTVS_SUBSKEYS>
AAADceB7MQBAAAAAAAAAAAAAAAAAAWAAAAAwYMAAAAAAAFgBUAAAHwQQCAAADBzh2A4wx4LAAgiIAiRCUACCAABhKBAIiJQPTIgKNiLykZOEcAhk1BHY2Aew4KQOoAAARAAUEQBAAACIACgiAAAAAAAAAA==

> <PUBCHEM_IUPAC_OPENEYE_NAME>
7-[(1R)-2-[2-[2-[[2-(2-fluorophenyl)ethylamino]methyl]phenyl]ethylamino]-1-hydroxy-ethyl]-4-hydroxy-3H-1,3-benzothiazol-2-one

> <PUBCHEM_IUPAC_CAS_NAME>
7-[(1R)-2-[2-[2-[[2-(2-fluorophenyl)ethylamino]methyl]phenyl]ethylamino]-1-hydroxyethyl]-4-hydroxy-3H-1,3-benzothiazol-2-one

> <PUBCHEM_IUPAC_NAME_MARKUP>
7-[(1<I>R</I>)-2-[2-[2-[[2-(2-fluorophenyl)ethylamino]methyl]phenyl]ethylamino]-1-hydroxyethyl]-4-hydroxy-3<I>H</I>-1,3-benzothiazol-2-one

> <PUBCHEM_IUPAC_NAME>
7-[(1R)-2-[2-[2-[[2-(2-fluorophenyl)ethylamino]methyl]phenyl]ethylamino]-1-hydroxyethyl]-4-hydroxy-3H-1,3-benzothiazol-2-one

> <PUBCHEM_IUPAC_SYSTEMATIC_NAME>
7-[(1R)-2-[2-[2-[[2-(2-fluorophenyl)ethylamino]methyl]phenyl]ethylamino]-1-oxidanyl-ethyl]-4-oxidanyl-3H-1,3-benzothiazol-2-one

> <PUBCHEM_IUPAC_TRADITIONAL_NAME>
7-[(1R)-2-[2-[2-[[2-(2-fluorophenyl)ethylamino]methyl]phenyl]ethylamino]-1-hydroxy-ethyl]-4-hydroxy-3H-1,3-benzothiazol-2-one

> <PUBCHEM_IUPAC_INCHI>
InChI=1S/C26H28FN3O3S/c27-21-8-4-3-6-18(21)12-14-28-15-19-7-2-1-5-17(19)11-13-29-16-23(32)20-9-10-22(31)24-25(20)34-26(33)30-24/h1-10,23,28-29,31-32H,11-16H2,(H,30,33)/t23-/m0/s1

> <PUBCHEM_IUPAC_INCHIKEY>
XXPNWYXHQVWMTB-QHCPKHFHSA-N

> <PUBCHEM_XLOGP3_AA>
3.4

> <PUBCHEM_EXACT_MASS>
481.18354110

> <PUBCHEM_MOLECULAR_FORMULA>
C26H28FN3O3S

> <PUBCHEM_MOLECULAR_WEIGHT>
481.6

> <PUBCHEM_OPENEYE_CAN_SMILES>
C1=CC=C(C(=C1)CCNCC(C2=C3C(=C(C=C2)O)NC(=O)S3)O)CNCCC4=CC=CC=C4F

> <PUBCHEM_OPENEYE_ISO_SMILES>
C1=CC=C(C(=C1)CCNC[C@@H](C2=C3C(=C(C=C2)O)NC(=O)S3)O)CNCCC4=CC=CC=C4F

> <PUBCHEM_CACTVS_TPSA>
119

> <PUBCHEM_MONOISOTOPIC_WEIGHT>
481.18354110

> <PUBCHEM_TOTAL_CHARGE>
0

> <PUBCHEM_HEAVY_ATOM_COUNT>
34

> <PUBCHEM_ATOM_DEF_STEREO_COUNT>
1

> <PUBCHEM_ATOM_UDEF_STEREO_COUNT>
0

> <PUBCHEM_BOND_DEF_STEREO_COUNT>
0

> <PUBCHEM_BOND_UDEF_STEREO_COUNT>
0

> <PUBCHEM_ISOTOPIC_ATOM_COUNT>
0

> <PUBCHEM_COMPONENT_COUNT>
1

> <PUBCHEM_CACTVS_TAUTO_COUNT>
-1

> <PUBCHEM_COORDINATE_TYPE>
1
5
255

> <PUBCHEM_BONDANNOTATIONS>
1  17  8
1  29  8
13  15  8
13  19  8
14  17  8
14  20  8
15  22  8
17  18  8
18  24  8
19  26  8
20  25  8
22  27  8
24  25  8
26  27  8
28  30  8
28  31  8
9  3  6
30  32  8
31  33  8
32  34  8
33  34  8
8  18  8
8  29  8

$$$$
