10690882
  -OEChem-09292322132D

 53 56  0     1  0  0  0  0  0999 V2000
    3.6750    1.2942    0.0000 O   0  0  0  0  0  0  0  0  0  0  0  0
    2.8090    2.7942    0.0000 O   0  0  0  0  0  0  0  0  0  0  0  0
    3.6750    4.2942    0.0000 O   0  0  0  0  0  0  0  0  0  0  0  0
    3.3090   -1.7446    0.0000 N   0  0  3  0  0  0  0  0  0  0  0  0
    2.8090   -0.2058    0.0000 C   0  0  3  0  0  0  0  0  0  0  0  0
    2.0000   -0.7935    0.0000 C   0  0  0  0  0  0  0  0  0  0  0  0
    3.6180   -0.7935    0.0000 C   0  0  0  0  0  0  0  0  0  0  0  0
    2.3090   -1.7446    0.0000 C   0  0  0  0  0  0  0  0  0  0  0  0
    2.8090    0.7942    0.0000 C   0  0  0  0  0  0  0  0  0  0  0  0
    3.8968   -2.5536    0.0000 C   0  0  0  0  0  0  0  0  0  0  0  0
    3.4901   -3.4672    0.0000 C   0  0  0  0  0  0  0  0  0  0  0  0
    2.4955   -3.5717    0.0000 C   0  0  0  0  0  0  0  0  0  0  0  0
    4.0778   -4.2762    0.0000 C   0  0  0  0  0  0  0  0  0  0  0  0
    3.6750    2.2942    0.0000 C   0  0  0  0  0  0  0  0  0  0  0  0
    4.5411    2.7942    0.0000 C   0  0  0  0  0  0  0  0  0  0  0  0
    2.0888   -4.4852    0.0000 C   0  0  0  0  0  0  0  0  0  0  0  0
    3.6711   -5.1897    0.0000 C   0  0  0  0  0  0  0  0  0  0  0  0
    2.6766   -5.2942    0.0000 C   0  0  0  0  0  0  0  0  0  0  0  0
    5.4071    2.2942    0.0000 C   0  0  0  0  0  0  0  0  0  0  0  0
    4.5411    3.7942    0.0000 C   0  0  0  0  0  0  0  0  0  0  0  0
    6.2731    2.7942    0.0000 C   0  0  0  0  0  0  0  0  0  0  0  0
    6.2731    3.7942    0.0000 C   0  0  0  0  0  0  0  0  0  0  0  0
    5.4071    4.2942    0.0000 C   0  0  0  0  0  0  0  0  0  0  0  0
    7.1671    2.2596    0.0000 C   0  0  0  0  0  0  0  0  0  0  0  0
    7.1671    4.3289    0.0000 C   0  0  0  0  0  0  0  0  0  0  0  0
    8.0731    2.7734    0.0000 C   0  0  0  0  0  0  0  0  0  0  0  0
    8.0731    3.8151    0.0000 C   0  0  0  0  0  0  0  0  0  0  0  0
    3.6750    5.2942    0.0000 C   0  0  0  0  0  0  0  0  0  0  0  0
    3.3614    0.0757    0.0000 H   0  0  0  0  0  0  0  0  0  0  0  0
    1.6900   -0.2566    0.0000 H   0  0  0  0  0  0  0  0  0  0  0  0
    1.4336   -1.0457    0.0000 H   0  0  0  0  0  0  0  0  0  0  0  0
    4.1844   -1.0457    0.0000 H   0  0  0  0  0  0  0  0  0  0  0  0
    3.9280   -0.2566    0.0000 H   0  0  0  0  0  0  0  0  0  0  0  0
    1.7026   -1.8735    0.0000 H   0  0  0  0  0  0  0  0  0  0  0  0
    2.3738   -2.3612    0.0000 H   0  0  0  0  0  0  0  0  0  0  0  0
    2.5970    1.3769    0.0000 H   0  0  0  0  0  0  0  0  0  0  0  0
    2.1984    0.6866    0.0000 H   0  0  0  0  0  0  0  0  0  0  0  0
    4.4108   -2.9003    0.0000 H   0  0  0  0  0  0  0  0  0  0  0  0
    4.3275   -2.1076    0.0000 H   0  0  0  0  0  0  0  0  0  0  0  0
    2.1311   -3.0701    0.0000 H   0  0  0  0  0  0  0  0  0  0  0  0
    4.6944   -4.2114    0.0000 H   0  0  0  0  0  0  0  0  0  0  0  0
    1.4722   -4.5500    0.0000 H   0  0  0  0  0  0  0  0  0  0  0  0
    4.0355   -5.6913    0.0000 H   0  0  0  0  0  0  0  0  0  0  0  0
    2.4244   -5.8606    0.0000 H   0  0  0  0  0  0  0  0  0  0  0  0
    5.4071    1.6742    0.0000 H   0  0  0  0  0  0  0  0  0  0  0  0
    5.4071    4.9142    0.0000 H   0  0  0  0  0  0  0  0  0  0  0  0
    7.1599    1.6396    0.0000 H   0  0  0  0  0  0  0  0  0  0  0  0
    7.1599    4.9489    0.0000 H   0  0  0  0  0  0  0  0  0  0  0  0
    8.6089    2.4614    0.0000 H   0  0  0  0  0  0  0  0  0  0  0  0
    8.6089    4.1271    0.0000 H   0  0  0  0  0  0  0  0  0  0  0  0
    4.2950    5.2942    0.0000 H   0  0  0  0  0  0  0  0  0  0  0  0
    3.6750    5.9142    0.0000 H   0  0  0  0  0  0  0  0  0  0  0  0
    3.0550    5.2942    0.0000 H   0  0  0  0  0  0  0  0  0  0  0  0
  1  9  1  0  0  0  0
  1 14  1  0  0  0  0
  2 14  2  0  0  0  0
  3 20  1  0  0  0  0
  3 28  1  0  0  0  0
  4  7  1  0  0  0  0
  4  8  1  0  0  0  0
  4 10  1  0  0  0  0
  5  6  1  0  0  0  0
  5  7  1  0  0  0  0
  5  9  1  0  0  0  0
  5 29  1  0  0  0  0
  6  8  1  0  0  0  0
  6 30  1  0  0  0  0
  6 31  1  0  0  0  0
  7 32  1  0  0  0  0
  7 33  1  0  0  0  0
  8 34  1  0  0  0  0
  8 35  1  0  0  0  0
  9 36  1  0  0  0  0
  9 37  1  0  0  0  0
 10 11  1  0  0  0  0
 10 38  1  0  0  0  0
 10 39  1  0  0  0  0
 11 12  2  0  0  0  0
 11 13  1  0  0  0  0
 12 16  1  0  0  0  0
 12 40  1  0  0  0  0
 13 17  2  0  0  0  0
 13 41  1  0  0  0  0
 14 15  1  0  0  0  0
 15 19  2  0  0  0  0
 15 20  1  0  0  0  0
 16 18  2  0  0  0  0
 16 42  1  0  0  0  0
 17 18  1  0  0  0  0
 17 43  1  0  0  0  0
 18 44  1  0  0  0  0
 19 21  1  0  0  0  0
 19 45  1  0  0  0  0
 20 23  2  0  0  0  0
 21 22  1  0  0  0  0
 21 24  2  0  0  0  0
 22 23  1  0  0  0  0
 22 25  2  0  0  0  0
 23 46  1  0  0  0  0
 24 26  1  0  0  0  0
 24 47  1  0  0  0  0
 25 27  1  0  0  0  0
 25 48  1  0  0  0  0
 26 27  2  0  0  0  0
 26 49  1  0  0  0  0
 27 50  1  0  0  0  0
 28 51  1  0  0  0  0
 28 52  1  0  0  0  0
 28 53  1  0  0  0  0
M  END
> <PUBCHEM_COMPOUND_CID>
10690882

> <PUBCHEM_COMPOUND_CANONICALIZED>
1

> <PUBCHEM_CACTVS_COMPLEXITY>
504

> <PUBCHEM_CACTVS_HBOND_ACCEPTOR>
4

> <PUBCHEM_CACTVS_HBOND_DONOR>
0

> <PUBCHEM_CACTVS_ROTATABLE_BOND>
7

> <PUBCHEM_CACTVS_SUBSKEYS>
AAADceB6MAAAAAAAAAAAAAAAAAAAAWAAAAAwYMAAAAAAAADBVAAAHgAAAAAADQThmAYyDsMABACIAiDSCACCCAAkIAAIiAEODMgMJzaEtRuGMWhn4BGIqYe4yPCO4AADAAAYAADAAAYAADAAAAAAAAAAAA==

> <PUBCHEM_IUPAC_OPENEYE_NAME>
(1-benzylpyrrolidin-3-yl)methyl 3-methoxynaphthalene-2-carboxylate

> <PUBCHEM_IUPAC_CAS_NAME>
3-methoxy-2-naphthalenecarboxylic acid [1-(phenylmethyl)-3-pyrrolidinyl]methyl ester

> <PUBCHEM_IUPAC_NAME_MARKUP>
(1-benzylpyrrolidin-3-yl)methyl 3-methoxynaphthalene-2-carboxylate

> <PUBCHEM_IUPAC_NAME>
(1-benzylpyrrolidin-3-yl)methyl 3-methoxynaphthalene-2-carboxylate

> <PUBCHEM_IUPAC_SYSTEMATIC_NAME>
[1-(phenylmethyl)pyrrolidin-3-yl]methyl 3-methoxynaphthalene-2-carboxylate

> <PUBCHEM_IUPAC_TRADITIONAL_NAME>
3-methoxynaphthalene-2-carboxylic acid (1-benzylpyrrolidin-3-yl)methyl ester

> <PUBCHEM_IUPAC_INCHI>
InChI=1S/C24H25NO3/c1-27-23-14-21-10-6-5-9-20(21)13-22(23)24(26)28-17-19-11-12-25(16-19)15-18-7-3-2-4-8-18/h2-10,13-14,19H,11-12,15-17H2,1H3

> <PUBCHEM_IUPAC_INCHIKEY>
DQVBBLPRBXLLEL-UHFFFAOYSA-N

> <PUBCHEM_XLOGP3_AA>
4.9

> <PUBCHEM_EXACT_MASS>
375.18344366

> <PUBCHEM_MOLECULAR_FORMULA>
C24H25NO3

> <PUBCHEM_MOLECULAR_WEIGHT>
375.5

> <PUBCHEM_OPENEYE_CAN_SMILES>
COC1=CC2=CC=CC=C2C=C1C(=O)OCC3CCN(C3)CC4=CC=CC=C4

> <PUBCHEM_OPENEYE_ISO_SMILES>
COC1=CC2=CC=CC=C2C=C1C(=O)OCC3CCN(C3)CC4=CC=CC=C4

> <PUBCHEM_CACTVS_TPSA>
38.8

> <PUBCHEM_MONOISOTOPIC_WEIGHT>
375.18344366

> <PUBCHEM_TOTAL_CHARGE>
0

> <PUBCHEM_HEAVY_ATOM_COUNT>
28

> <PUBCHEM_ATOM_DEF_STEREO_COUNT>
0

> <PUBCHEM_ATOM_UDEF_STEREO_COUNT>
1

> <PUBCHEM_BOND_DEF_STEREO_COUNT>
0

> <PUBCHEM_BOND_UDEF_STEREO_COUNT>
0

> <PUBCHEM_ISOTOPIC_ATOM_COUNT>
0

> <PUBCHEM_COMPONENT_COUNT>
1

> <PUBCHEM_CACTVS_TAUTO_COUNT>
-1

> <PUBCHEM_COORDINATE_TYPE>
1
5
255

> <PUBCHEM_BONDANNOTATIONS>
11  12  8
11  13  8
12  16  8
13  17  8
15  19  8
15  20  8
16  18  8
17  18  8
19  21  8
20  23  8
21  22  8
21  24  8
22  23  8
22  25  8
24  26  8
25  27  8
26  27  8
5  9  3

$$$$
