118717797
  -OEChem-09292322362D

 52 55  0     1  0  0  0  0  0999 V2000
    5.3871    1.6806    0.0000 S   0  0  0  0  0  0  0  0  0  0  0  0
    3.8372   -4.6832    0.0000 O   0  0  0  0  0  0  0  0  0  0  0  0
    5.6405   -3.6234    0.0000 O   0  0  0  0  0  0  0  0  0  0  0  0
    2.9180    0.0136    0.0000 N   0  0  3  0  0  0  0  0  0  0  0  0
    3.7841   -0.4864    0.0000 C   0  0  1  0  0  0  0  0  0  0  0  0
    4.6501    0.0136    0.0000 C   0  0  0  0  0  0  0  0  0  0  0  0
    2.9180    1.0136    0.0000 C   0  0  0  0  0  0  0  0  0  0  0  0
    2.0080   -0.4933    0.0000 C   0  0  0  0  0  0  0  0  0  0  0  0
    3.8001   -1.5280    0.0000 C   0  0  0  0  0  0  0  0  0  0  0  0
    3.7841    1.5136    0.0000 C   0  0  0  0  0  0  0  0  0  0  0  0
    4.6501    1.0136    0.0000 C   0  0  0  0  0  0  0  0  0  0  0  0
    2.0000   -1.5349    0.0000 C   0  0  0  0  0  0  0  0  0  0  0  0
    2.9021   -2.0557    0.0000 C   0  0  0  0  0  0  0  0  0  0  0  0
    4.9820    2.5884    0.0000 C   0  0  0  0  0  0  0  0  0  0  0  0
    3.9933    2.4854    0.0000 C   0  0  0  0  0  0  0  0  0  0  0  0
    4.9820    4.3205    0.0000 C   0  0  0  0  0  0  0  0  0  0  0  0
    5.4820    3.4544    0.0000 C   0  0  0  0  0  0  0  0  0  0  0  0
    4.7520   -2.0486    0.0000 C   0  0  0  0  0  0  0  0  0  0  0  0
    2.8937   -3.1407    0.0000 C   0  0  0  0  0  0  0  0  0  0  0  0
    4.7688   -3.1334    0.0000 C   0  0  0  0  0  0  0  0  0  0  0  0
    3.8334   -3.6832    0.0000 C   0  0  0  0  0  0  0  0  0  0  0  0
    4.4820    5.1865    0.0000 C   0  0  0  0  0  0  0  0  0  0  0  0
    5.8480    4.8205    0.0000 C   0  0  0  0  0  0  0  0  0  0  0  0
    4.1160    3.8205    0.0000 C   0  0  0  0  0  0  0  0  0  0  0  0
    2.9731   -5.1865    0.0000 C   0  0  0  0  0  0  0  0  0  0  0  0
    4.5234   -0.9058    0.0000 H   0  0  0  0  0  0  0  0  0  0  0  0
    4.8621   -0.5691    0.0000 H   0  0  0  0  0  0  0  0  0  0  0  0
    5.2607    0.1212    0.0000 H   0  0  0  0  0  0  0  0  0  0  0  0
    2.7060    1.5962    0.0000 H   0  0  0  0  0  0  0  0  0  0  0  0
    2.3074    0.9059    0.0000 H   0  0  0  0  0  0  0  0  0  0  0  0
    1.8035    0.0920    0.0000 H   0  0  0  0  0  0  0  0  0  0  0  0
    1.3964   -0.5947    0.0000 H   0  0  0  0  0  0  0  0  0  0  0  0
    1.3900   -1.4241    0.0000 H   0  0  0  0  0  0  0  0  0  0  0  0
    1.7864   -2.1170    0.0000 H   0  0  0  0  0  0  0  0  0  0  0  0
    3.5792    2.9468    0.0000 H   0  0  0  0  0  0  0  0  0  0  0  0
    5.9569    3.0559    0.0000 H   0  0  0  0  0  0  0  0  0  0  0  0
    5.9569    3.8530    0.0000 H   0  0  0  0  0  0  0  0  0  0  0  0
    5.2829   -1.7283    0.0000 H   0  0  0  0  0  0  0  0  0  0  0  0
    2.3556   -3.4486    0.0000 H   0  0  0  0  0  0  0  0  0  0  0  0
    5.0189    5.4965    0.0000 H   0  0  0  0  0  0  0  0  0  0  0  0
    4.1720    5.7234    0.0000 H   0  0  0  0  0  0  0  0  0  0  0  0
    3.9450    4.8765    0.0000 H   0  0  0  0  0  0  0  0  0  0  0  0
    6.1580    4.2835    0.0000 H   0  0  0  0  0  0  0  0  0  0  0  0
    6.3849    5.1305    0.0000 H   0  0  0  0  0  0  0  0  0  0  0  0
    5.5380    5.3574    0.0000 H   0  0  0  0  0  0  0  0  0  0  0  0
    3.8060    4.3574    0.0000 H   0  0  0  0  0  0  0  0  0  0  0  0
    3.5790    3.5105    0.0000 H   0  0  0  0  0  0  0  0  0  0  0  0
    4.4260    3.2835    0.0000 H   0  0  0  0  0  0  0  0  0  0  0  0
    6.1738   -3.3072    0.0000 H   0  0  0  0  0  0  0  0  0  0  0  0
    2.6610   -4.6508    0.0000 H   0  0  0  0  0  0  0  0  0  0  0  0
    2.4374   -5.4986    0.0000 H   0  0  0  0  0  0  0  0  0  0  0  0
    3.2852   -5.7222    0.0000 H   0  0  0  0  0  0  0  0  0  0  0  0
  1 11  1  0  0  0  0
  1 14  1  0  0  0  0
  2 21  1  0  0  0  0
  2 25  1  0  0  0  0
  3 20  1  0  0  0  0
  3 49  1  0  0  0  0
  4  5  1  0  0  0  0
  4  7  1  0  0  0  0
  4  8  1  0  0  0  0
  5  6  1  0  0  0  0
  5  9  1  0  0  0  0
  5 26  1  6  0  0  0
  6 11  1  0  0  0  0
  6 27  1  0  0  0  0
  6 28  1  0  0  0  0
  7 10  1  0  0  0  0
  7 29  1  0  0  0  0
  7 30  1  0  0  0  0
  8 12  1  0  0  0  0
  8 31  1  0  0  0  0
  8 32  1  0  0  0  0
  9 13  1  0  0  0  0
  9 18  2  0  0  0  0
 10 11  2  0  0  0  0
 10 15  1  0  0  0  0
 12 13  1  0  0  0  0
 12 33  1  0  0  0  0
 12 34  1  0  0  0  0
 13 19  2  0  0  0  0
 14 15  2  0  0  0  0
 14 17  1  0  0  0  0
 15 35  1  0  0  0  0
 16 17  1  0  0  0  0
 16 22  1  0  0  0  0
 16 23  1  0  0  0  0
 16 24  1  0  0  0  0
 17 36  1  0  0  0  0
 17 37  1  0  0  0  0
 18 20  1  0  0  0  0
 18 38  1  0  0  0  0
 19 21  1  0  0  0  0
 19 39  1  0  0  0  0
 20 21  2  0  0  0  0
 22 40  1  0  0  0  0
 22 41  1  0  0  0  0
 22 42  1  0  0  0  0
 23 43  1  0  0  0  0
 23 44  1  0  0  0  0
 23 45  1  0  0  0  0
 24 46  1  0  0  0  0
 24 47  1  0  0  0  0
 24 48  1  0  0  0  0
 25 50  1  0  0  0  0
 25 51  1  0  0  0  0
 25 52  1  0  0  0  0
M  END
> <PUBCHEM_COMPOUND_CID>
118717797

> <PUBCHEM_COMPOUND_CANONICALIZED>
1

> <PUBCHEM_CACTVS_COMPLEXITY>
479

> <PUBCHEM_CACTVS_HBOND_ACCEPTOR>
4

> <PUBCHEM_CACTVS_HBOND_DONOR>
1

> <PUBCHEM_CACTVS_ROTATABLE_BOND>
3

> <PUBCHEM_CACTVS_SUBSKEYS>
AAADceB6MABAAAAAAAAAAAAAAAAAASAAAAA8WIAAAAAAAFixwAAAHgQACAAADizB2AYyB4MABgiEAiBCAACDCIAgKBBAiBgOjIgNJiKmsRuEcCtkwBGruAew0PMPoAABAAAQQABAAAIAACCAAAAAAAAAAA==

> <PUBCHEM_IUPAC_OPENEYE_NAME>
(1S)-14-(2,2-dimethylpropyl)-5-methoxy-15-thia-10-azatetracyclo[8.7.0.02,7.012,16]heptadeca-2,4,6,12(16),13-pentaen-4-ol

> <PUBCHEM_IUPAC_CAS_NAME>
(1S)-14-(2,2-dimethylpropyl)-5-methoxy-15-thia-10-azatetracyclo[8.7.0.02,7.012,16]heptadeca-2,4,6,12(16),13-pentaen-4-ol

> <PUBCHEM_IUPAC_NAME_MARKUP>
(1<I>S</I>)-14-(2,2-dimethylpropyl)-5-methoxy-15-thia-10-azatetracyclo[8.7.0.0<SUP>2,7</SUP>.0<SUP>12,16</SUP>]heptadeca-2,4,6,12(16),13-pentaen-4-ol

> <PUBCHEM_IUPAC_NAME>
(1S)-14-(2,2-dimethylpropyl)-5-methoxy-15-thia-10-azatetracyclo[8.7.0.02,7.012,16]heptadeca-2,4,6,12(16),13-pentaen-4-ol

> <PUBCHEM_IUPAC_SYSTEMATIC_NAME>
(1S)-14-(2,2-dimethylpropyl)-5-methoxy-15-thia-10-azatetracyclo[8.7.0.02,7.012,16]heptadeca-2,4,6,12(16),13-pentaen-4-ol

> <PUBCHEM_IUPAC_TRADITIONAL_NAME>
(1S)-5-methoxy-14-neopentyl-15-thia-10-azatetracyclo[8.7.0.02,7.012,16]heptadeca-2,4,6,12(16),13-pentaen-4-ol

> <PUBCHEM_IUPAC_INCHI>
InChI=1S/C21H27NO2S/c1-21(2,3)11-15-7-14-12-22-6-5-13-8-19(24-4)18(23)9-16(13)17(22)10-20(14)25-15/h7-9,17,23H,5-6,10-12H2,1-4H3/t17-/m0/s1

> <PUBCHEM_IUPAC_INCHIKEY>
UBEYCBQVUSZUDM-KRWDZBQOSA-N

> <PUBCHEM_XLOGP3_AA>
4.7

> <PUBCHEM_EXACT_MASS>
357.17625028

> <PUBCHEM_MOLECULAR_FORMULA>
C21H27NO2S

> <PUBCHEM_MOLECULAR_WEIGHT>
357.5

> <PUBCHEM_OPENEYE_CAN_SMILES>
CC(C)(C)CC1=CC2=C(S1)CC3C4=CC(=C(C=C4CCN3C2)OC)O

> <PUBCHEM_OPENEYE_ISO_SMILES>
CC(C)(C)CC1=CC2=C(S1)C[C@H]3C4=CC(=C(C=C4CCN3C2)OC)O

> <PUBCHEM_CACTVS_TPSA>
60.9

> <PUBCHEM_MONOISOTOPIC_WEIGHT>
357.17625028

> <PUBCHEM_TOTAL_CHARGE>
0

> <PUBCHEM_HEAVY_ATOM_COUNT>
25

> <PUBCHEM_ATOM_DEF_STEREO_COUNT>
1

> <PUBCHEM_ATOM_UDEF_STEREO_COUNT>
0

> <PUBCHEM_BOND_DEF_STEREO_COUNT>
0

> <PUBCHEM_BOND_UDEF_STEREO_COUNT>
0

> <PUBCHEM_ISOTOPIC_ATOM_COUNT>
0

> <PUBCHEM_COMPONENT_COUNT>
1

> <PUBCHEM_CACTVS_TAUTO_COUNT>
-1

> <PUBCHEM_COORDINATE_TYPE>
1
5
255

> <PUBCHEM_BONDANNOTATIONS>
1  11  8
1  14  8
10  11  8
10  15  8
13  19  8
14  15  8
18  20  8
19  21  8
20  21  8
5  26  6
9  13  8
9  18  8

$$$$
