17866229
  -OEChem-09292322222D

 66 68  0     1  0  0  0  0  0999 V2000
    3.7320    0.7631    0.0000 S   0  0  0  0  0  0  0  0  0  0  0  0
    2.0000    1.7631    0.0000 F   0  0  0  0  0  0  0  0  0  0  0  0
    2.3660    0.3971    0.0000 F   0  0  0  0  0  0  0  0  0  0  0  0
    3.3660    2.1291    0.0000 F   0  0  0  0  0  0  0  0  0  0  0  0
    4.5981    0.2631    0.0000 O   0  0  0  0  0  0  0  0  0  0  0  0
    3.2320   -0.1029    0.0000 O   0  0  0  0  0  0  0  0  0  0  0  0
    4.2320    1.6291    0.0000 O   0  0  0  0  0  0  0  0  0  0  0  0
   14.1961    1.7222    0.0000 O   0  0  0  0  0  0  0  0  0  0  0  0
    8.9962    0.7423    0.0000 N   0  0  3  0  0  0  0  0  0  0  0  0
   13.3243    0.2256    0.0000 N   0  0  0  0  0  0  0  0  0  0  0  0
   19.3807   -1.2978    0.0000 N   0  0  0  0  0  0  0  0  0  0  0  0
    8.9962    1.7839    0.0000 C   0  0  0  0  0  0  0  0  0  0  0  0
    8.0901    0.2284    0.0000 C   0  0  0  0  0  0  0  0  0  0  0  0
    8.0901    2.2978    0.0000 C   0  0  0  0  0  0  0  0  0  0  0  0
    9.8602    0.2389    0.0000 C   0  0  0  0  0  0  0  0  0  0  0  0
    7.1962    0.7631    0.0000 C   0  0  0  0  0  0  0  0  0  0  0  0
    7.1962    1.7631    0.0000 C   0  0  0  0  0  0  0  0  0  0  0  0
   10.7282    0.7356    0.0000 C   0  0  0  0  0  0  0  0  0  0  0  0
   11.5923    0.2323    0.0000 C   0  0  0  0  0  0  0  0  0  0  0  0
    6.3301    0.2631    0.0000 C   0  0  0  0  0  0  0  0  0  0  0  0
    6.3301    2.2631    0.0000 C   0  0  0  0  0  0  0  0  0  0  0  0
    5.4641    0.7631    0.0000 C   0  0  0  0  0  0  0  0  0  0  0  0
   12.4602    0.7289    0.0000 C   0  0  0  0  0  0  0  0  0  0  0  0
    5.4641    1.7631    0.0000 C   0  0  0  0  0  0  0  0  0  0  0  0
   14.1923    0.7223    0.0000 C   0  0  0  0  0  0  0  0  0  0  0  0
    2.8660    1.2631    0.0000 C   0  0  0  0  0  0  0  0  0  0  0  0
   15.0564    0.2189    0.0000 C   0  0  0  0  0  0  0  0  0  0  0  0
   15.9243    0.7156    0.0000 C   0  0  0  0  0  0  0  0  0  0  0  0
   16.7884    0.2122    0.0000 C   0  0  0  0  0  0  0  0  0  0  0  0
   18.5166   -0.7944    0.0000 C   0  0  0  0  0  0  0  0  0  0  0  0
   16.7845   -0.7878    0.0000 C   0  0  0  0  0  0  0  0  0  0  0  0
   17.6564    0.7089    0.0000 C   0  0  0  0  0  0  0  0  0  0  0  0
   17.6486   -1.2911    0.0000 C   0  0  0  0  0  0  0  0  0  0  0  0
   18.5204    0.2056    0.0000 C   0  0  0  0  0  0  0  0  0  0  0  0
   20.2486   -0.8011    0.0000 C   0  0  0  0  0  0  0  0  0  0  0  0
   19.3768   -2.2978    0.0000 C   0  0  0  0  0  0  0  0  0  0  0  0
    9.6070    1.6778    0.0000 H   0  0  0  0  0  0  0  0  0  0  0  0
    9.2052    2.3676    0.0000 H   0  0  0  0  0  0  0  0  0  0  0  0
    7.6855   -0.2414    0.0000 H   0  0  0  0  0  0  0  0  0  0  0  0
    8.4837   -0.2506    0.0000 H   0  0  0  0  0  0  0  0  0  0  0  0
    8.4837    2.7768    0.0000 H   0  0  0  0  0  0  0  0  0  0  0  0
    7.6855    2.7675    0.0000 H   0  0  0  0  0  0  0  0  0  0  0  0
    9.4599   -0.2345    0.0000 H   0  0  0  0  0  0  0  0  0  0  0  0
   10.2569   -0.2375    0.0000 H   0  0  0  0  0  0  0  0  0  0  0  0
   11.1286    1.2090    0.0000 H   0  0  0  0  0  0  0  0  0  0  0  0
   10.3315    1.2121    0.0000 H   0  0  0  0  0  0  0  0  0  0  0  0
   11.1919   -0.2411    0.0000 H   0  0  0  0  0  0  0  0  0  0  0  0
   11.9890   -0.2442    0.0000 H   0  0  0  0  0  0  0  0  0  0  0  0
    6.3301   -0.3569    0.0000 H   0  0  0  0  0  0  0  0  0  0  0  0
    6.3301    2.8831    0.0000 H   0  0  0  0  0  0  0  0  0  0  0  0
   12.8606    1.2023    0.0000 H   0  0  0  0  0  0  0  0  0  0  0  0
   12.0635    1.2054    0.0000 H   0  0  0  0  0  0  0  0  0  0  0  0
    4.9272    2.0731    0.0000 H   0  0  0  0  0  0  0  0  0  0  0  0
   13.3219   -0.3944    0.0000 H   0  0  0  0  0  0  0  0  0  0  0  0
   15.0540   -0.4011    0.0000 H   0  0  0  0  0  0  0  0  0  0  0  0
   15.9267    1.3356    0.0000 H   0  0  0  0  0  0  0  0  0  0  0  0
   16.2464   -1.0957    0.0000 H   0  0  0  0  0  0  0  0  0  0  0  0
   17.6587    1.3289    0.0000 H   0  0  0  0  0  0  0  0  0  0  0  0
   17.6463   -1.9111    0.0000 H   0  0  0  0  0  0  0  0  0  0  0  0
   19.0586    0.5135    0.0000 H   0  0  0  0  0  0  0  0  0  0  0  0
   20.5566   -1.3392    0.0000 H   0  0  0  0  0  0  0  0  0  0  0  0
   20.7868   -0.4932    0.0000 H   0  0  0  0  0  0  0  0  0  0  0  0
   19.9407   -0.2630    0.0000 H   0  0  0  0  0  0  0  0  0  0  0  0
   18.7568   -2.2954    0.0000 H   0  0  0  0  0  0  0  0  0  0  0  0
   19.3744   -2.9178    0.0000 H   0  0  0  0  0  0  0  0  0  0  0  0
   19.9968   -2.3002    0.0000 H   0  0  0  0  0  0  0  0  0  0  0  0
  1  5  1  0  0  0  0
  1  6  2  0  0  0  0
  1  7  2  0  0  0  0
  1 26  1  0  0  0  0
  2 26  1  0  0  0  0
  3 26  1  0  0  0  0
  4 26  1  0  0  0  0
  5 22  1  0  0  0  0
  8 25  2  0  0  0  0
  9 12  1  0  0  0  0
  9 13  1  0  0  0  0
  9 15  1  0  0  0  0
 10 23  1  0  0  0  0
 10 25  1  0  0  0  0
 10 54  1  0  0  0  0
 11 30  1  0  0  0  0
 11 35  1  0  0  0  0
 11 36  1  0  0  0  0
 12 14  1  0  0  0  0
 12 37  1  0  0  0  0
 12 38  1  0  0  0  0
 13 16  1  0  0  0  0
 13 39  1  0  0  0  0
 13 40  1  0  0  0  0
 14 17  1  0  0  0  0
 14 41  1  0  0  0  0
 14 42  1  0  0  0  0
 15 18  1  0  0  0  0
 15 43  1  0  0  0  0
 15 44  1  0  0  0  0
 16 17  2  0  0  0  0
 16 20  1  0  0  0  0
 17 21  1  0  0  0  0
 18 19  1  0  0  0  0
 18 45  1  0  0  0  0
 18 46  1  0  0  0  0
 19 23  1  0  0  0  0
 19 47  1  0  0  0  0
 19 48  1  0  0  0  0
 20 22  2  0  0  0  0
 20 49  1  0  0  0  0
 21 24  2  0  0  0  0
 21 50  1  0  0  0  0
 22 24  1  0  0  0  0
 23 51  1  0  0  0  0
 23 52  1  0  0  0  0
 24 53  1  0  0  0  0
 25 27  1  0  0  0  0
 27 28  2  0  0  0  0
 27 55  1  0  0  0  0
 28 29  1  0  0  0  0
 28 56  1  0  0  0  0
 29 31  2  0  0  0  0
 29 32  1  0  0  0  0
 30 33  2  0  0  0  0
 30 34  1  0  0  0  0
 31 33  1  0  0  0  0
 31 57  1  0  0  0  0
 32 34  2  0  0  0  0
 32 58  1  0  0  0  0
 33 59  1  0  0  0  0
 34 60  1  0  0  0  0
 35 61  1  0  0  0  0
 35 62  1  0  0  0  0
 35 63  1  0  0  0  0
 36 64  1  0  0  0  0
 36 65  1  0  0  0  0
 36 66  1  0  0  0  0
M  END
> <PUBCHEM_COMPOUND_CID>
17866229

> <PUBCHEM_COMPOUND_CANONICALIZED>
1

> <PUBCHEM_CACTVS_COMPLEXITY>
837

> <PUBCHEM_CACTVS_HBOND_ACCEPTOR>
9

> <PUBCHEM_CACTVS_HBOND_DONOR>
1

> <PUBCHEM_CACTVS_ROTATABLE_BOND>
10

> <PUBCHEM_CACTVS_SUBSKEYS>
AAADceB7OYBAAAAAAAAAAAAAAAAAAAAAAAA8YIAAAAAAAACxQAAAHwQQAAAADAzBmBQyxoPAAAKIAiVSUHCCAAAhIgAIiIAObMgIJiLAkZOEMAhk1hHIyYewwJAOqAABAAAQAABQAAIAACAAAAAAAAAAAA==

> <PUBCHEM_IUPAC_OPENEYE_NAME>
[2-[4-[[(E)-3-[4-(dimethylamino)phenyl]prop-2-enoyl]amino]butyl]-3,4-dihydro-1H-isoquinolin-7-yl] trifluoromethanesulfonate

> <PUBCHEM_IUPAC_CAS_NAME>
trifluoromethanesulfonic acid [2-[4-[[(E)-3-[4-(dimethylamino)phenyl]-1-oxoprop-2-enyl]amino]butyl]-3,4-dihydro-1H-isoquinolin-7-yl] ester

> <PUBCHEM_IUPAC_NAME_MARKUP>
[2-[4-[[(<I>E</I>)-3-[4-(dimethylamino)phenyl]prop-2-enoyl]amino]butyl]-3,4-dihydro-1<I>H</I>-isoquinolin-7-yl] trifluoromethanesulfonate

> <PUBCHEM_IUPAC_NAME>
[2-[4-[[(E)-3-[4-(dimethylamino)phenyl]prop-2-enoyl]amino]butyl]-3,4-dihydro-1H-isoquinolin-7-yl] trifluoromethanesulfonate

> <PUBCHEM_IUPAC_SYSTEMATIC_NAME>
[2-[4-[[(E)-3-[4-(dimethylamino)phenyl]prop-2-enoyl]amino]butyl]-3,4-dihydro-1H-isoquinolin-7-yl] tris(fluoranyl)methanesulfonate

> <PUBCHEM_IUPAC_TRADITIONAL_NAME>
trifluoromethanesulfonic acid [2-[4-[[(E)-3-[4-(dimethylamino)phenyl]acryloyl]amino]butyl]-3,4-dihydro-1H-isoquinolin-7-yl] ester

> <PUBCHEM_IUPAC_INCHI>
InChI=1S/C25H30F3N3O4S/c1-30(2)22-9-5-19(6-10-22)7-12-24(32)29-14-3-4-15-31-16-13-20-8-11-23(17-21(20)18-31)35-36(33,34)25(26,27)28/h5-12,17H,3-4,13-16,18H2,1-2H3,(H,29,32)/b12-7+

> <PUBCHEM_IUPAC_INCHIKEY>
GJWDRNPPBDVMAH-KPKJPENVSA-N

> <PUBCHEM_XLOGP3_AA>
4.8

> <PUBCHEM_EXACT_MASS>
525.19091211

> <PUBCHEM_MOLECULAR_FORMULA>
C25H30F3N3O4S

> <PUBCHEM_MOLECULAR_WEIGHT>
525.6

> <PUBCHEM_OPENEYE_CAN_SMILES>
CN(C)C1=CC=C(C=C1)C=CC(=O)NCCCCN2CCC3=C(C2)C=C(C=C3)OS(=O)(=O)C(F)(F)F

> <PUBCHEM_OPENEYE_ISO_SMILES>
CN(C)C1=CC=C(C=C1)/C=C/C(=O)NCCCCN2CCC3=C(C2)C=C(C=C3)OS(=O)(=O)C(F)(F)F

> <PUBCHEM_CACTVS_TPSA>
87.3

> <PUBCHEM_MONOISOTOPIC_WEIGHT>
525.19091211

> <PUBCHEM_TOTAL_CHARGE>
0

> <PUBCHEM_HEAVY_ATOM_COUNT>
36

> <PUBCHEM_ATOM_DEF_STEREO_COUNT>
0

> <PUBCHEM_ATOM_UDEF_STEREO_COUNT>
0

> <PUBCHEM_BOND_DEF_STEREO_COUNT>
1

> <PUBCHEM_BOND_UDEF_STEREO_COUNT>
0

> <PUBCHEM_ISOTOPIC_ATOM_COUNT>
0

> <PUBCHEM_COMPONENT_COUNT>
1

> <PUBCHEM_CACTVS_TAUTO_COUNT>
-1

> <PUBCHEM_COORDINATE_TYPE>
1
5
255

> <PUBCHEM_BONDANNOTATIONS>
16  17  8
16  20  8
17  21  8
20  22  8
21  24  8
22  24  8
29  31  8
29  32  8
30  33  8
30  34  8
31  33  8
32  34  8

$$$$
