44454382
  -OEChem-09292322242D

 64 69  0     1  0  0  0  0  0999 V2000
   14.6957   -4.7487    0.0000 Cl  0  0  0  0  0  0  0  0  0  0  0  0
    8.5361    2.0169    0.0000 S   0  0  0  0  0  0  0  0  0  0  0  0
   10.8540   -0.5575    0.0000 N   0  0  3  0  0  0  0  0  0  0  0  0
   13.5539   -2.2853    0.0000 N   0  0  0  0  0  0  0  0  0  0  0  0
   14.0539   -0.7465    0.0000 N   0  0  0  0  0  0  0  0  0  0  0  0
    6.7760    1.7381    0.0000 N   0  0  0  0  0  0  0  0  0  0  0  0
    7.2760    3.2770    0.0000 N   0  0  0  0  0  0  0  0  0  0  0  0
    6.2760    3.2770    0.0000 N   0  0  0  0  0  0  0  0  0  0  0  0
    2.5370    3.0620    0.0000 N   0  0  0  0  0  0  0  0  0  0  0  0
   10.9844   -1.5296    0.0000 C   0  0  0  0  0  0  0  0  0  0  0  0
   11.5309    0.1524    0.0000 C   0  0  0  0  0  0  0  0  0  0  0  0
   11.8243   -2.0360    0.0000 C   0  0  0  0  0  0  0  0  0  0  0  0
   12.7449   -1.6976    0.0000 C   0  0  0  0  0  0  0  0  0  0  0  0
   12.5081    0.0684    0.0000 C   0  0  0  0  0  0  0  0  0  0  0  0
   13.0539   -0.7465    0.0000 C   0  0  0  0  0  0  0  0  0  0  0  0
    9.9030   -0.2484    0.0000 C   0  0  0  0  0  0  0  0  0  0  0  0
    9.6951    0.7297    0.0000 C   0  0  0  0  0  0  0  0  0  0  0  0
   14.3629   -1.6976    0.0000 C   0  0  0  0  0  0  0  0  0  0  0  0
    8.7440    1.0387    0.0000 C   0  0  0  0  0  0  0  0  0  0  0  0
   13.6468   -3.3228    0.0000 C   0  0  0  0  0  0  0  0  0  0  0  0
   15.3209   -2.1065    0.0000 C   0  0  0  0  0  0  0  0  0  0  0  0
   14.5950   -3.7538    0.0000 C   0  0  0  0  0  0  0  0  0  0  0  0
   15.4377   -3.1416    0.0000 C   0  0  0  0  0  0  0  0  0  0  0  0
    7.5850    2.3259    0.0000 C   0  0  0  0  0  0  0  0  0  0  0  0
    5.9670    2.3259    0.0000 C   0  0  0  0  0  0  0  0  0  0  0  0
    5.0160    2.0169    0.0000 C   0  0  0  0  0  0  0  0  0  0  0  0
    4.2728    2.6860    0.0000 C   0  0  0  0  0  0  0  0  0  0  0  0
    6.7760    0.7381    0.0000 C   0  0  0  0  0  0  0  0  0  0  0  0
    3.3218    2.3770    0.0000 C   0  0  0  0  0  0  0  0  0  0  0  0
    4.8080    1.0387    0.0000 C   0  0  0  0  0  0  0  0  0  0  0  0
    4.5050    3.7014    0.0000 C   0  0  0  0  0  0  0  0  0  0  0  0
    3.1138    1.3988    0.0000 C   0  0  0  0  0  0  0  0  0  0  0  0
    3.8570    0.7297    0.0000 C   0  0  0  0  0  0  0  0  0  0  0  0
    3.7364    4.4044    0.0000 C   0  0  0  0  0  0  0  0  0  0  0  0
    2.7457    4.0825    0.0000 C   0  0  0  0  0  0  0  0  0  0  0  0
    2.0000    4.7487    0.0000 C   0  0  0  0  0  0  0  0  0  0  0  0
   10.3670   -1.4726    0.0000 H   0  0  0  0  0  0  0  0  0  0  0  0
   10.7909   -2.1186    0.0000 H   0  0  0  0  0  0  0  0  0  0  0  0
   11.7206    0.7426    0.0000 H   0  0  0  0  0  0  0  0  0  0  0  0
   10.9979    0.4692    0.0000 H   0  0  0  0  0  0  0  0  0  0  0  0
   11.3936   -2.4820    0.0000 H   0  0  0  0  0  0  0  0  0  0  0  0
   12.1628   -2.5554    0.0000 H   0  0  0  0  0  0  0  0  0  0  0  0
   13.0872    0.2896    0.0000 H   0  0  0  0  0  0  0  0  0  0  0  0
   12.4218    0.6824    0.0000 H   0  0  0  0  0  0  0  0  0  0  0  0
    9.2834   -0.2701    0.0000 H   0  0  0  0  0  0  0  0  0  0  0  0
    9.8167   -0.8624    0.0000 H   0  0  0  0  0  0  0  0  0  0  0  0
   10.3147    0.7513    0.0000 H   0  0  0  0  0  0  0  0  0  0  0  0
    9.7814    1.3437    0.0000 H   0  0  0  0  0  0  0  0  0  0  0  0
    8.1244    1.0171    0.0000 H   0  0  0  0  0  0  0  0  0  0  0  0
    8.6577    0.4248    0.0000 H   0  0  0  0  0  0  0  0  0  0  0  0
   13.1410   -3.6814    0.0000 H   0  0  0  0  0  0  0  0  0  0  0  0
   15.8182   -1.7363    0.0000 H   0  0  0  0  0  0  0  0  0  0  0  0
   16.0051   -3.3916    0.0000 H   0  0  0  0  0  0  0  0  0  0  0  0
    6.1560    0.7381    0.0000 H   0  0  0  0  0  0  0  0  0  0  0  0
    6.7760    0.1181    0.0000 H   0  0  0  0  0  0  0  0  0  0  0  0
    7.3960    0.7381    0.0000 H   0  0  0  0  0  0  0  0  0  0  0  0
    5.2688    0.6239    0.0000 H   0  0  0  0  0  0  0  0  0  0  0  0
    5.0969    3.8862    0.0000 H   0  0  0  0  0  0  0  0  0  0  0  0
    2.5242    1.2072    0.0000 H   0  0  0  0  0  0  0  0  0  0  0  0
    3.7281    0.1233    0.0000 H   0  0  0  0  0  0  0  0  0  0  0  0
    3.8676    5.0103    0.0000 H   0  0  0  0  0  0  0  0  0  0  0  0
    2.4131    5.2111    0.0000 H   0  0  0  0  0  0  0  0  0  0  0  0
    1.5376    5.1618    0.0000 H   0  0  0  0  0  0  0  0  0  0  0  0
    1.5869    4.2864    0.0000 H   0  0  0  0  0  0  0  0  0  0  0  0
  1 22  1  0  0  0  0
  2 19  1  0  0  0  0
  2 24  1  0  0  0  0
  3 10  1  0  0  0  0
  3 11  1  0  0  0  0
  3 16  1  0  0  0  0
  4 13  1  0  0  0  0
  4 18  1  0  0  0  0
  4 20  1  0  0  0  0
  5 15  1  0  0  0  0
  5 18  2  0  0  0  0
  6 24  1  0  0  0  0
  6 25  1  0  0  0  0
  6 28  1  0  0  0  0
  7  8  1  0  0  0  0
  7 24  2  0  0  0  0
  8 25  2  0  0  0  0
  9 29  1  0  0  0  0
  9 35  2  0  0  0  0
 10 12  1  0  0  0  0
 10 37  1  0  0  0  0
 10 38  1  0  0  0  0
 11 14  1  0  0  0  0
 11 39  1  0  0  0  0
 11 40  1  0  0  0  0
 12 13  1  0  0  0  0
 12 41  1  0  0  0  0
 12 42  1  0  0  0  0
 13 15  2  0  0  0  0
 14 15  1  0  0  0  0
 14 43  1  0  0  0  0
 14 44  1  0  0  0  0
 16 17  1  0  0  0  0
 16 45  1  0  0  0  0
 16 46  1  0  0  0  0
 17 19  1  0  0  0  0
 17 47  1  0  0  0  0
 17 48  1  0  0  0  0
 18 21  1  0  0  0  0
 19 49  1  0  0  0  0
 19 50  1  0  0  0  0
 20 22  2  0  0  0  0
 20 51  1  0  0  0  0
 21 23  2  0  0  0  0
 21 52  1  0  0  0  0
 22 23  1  0  0  0  0
 23 53  1  0  0  0  0
 25 26  1  0  0  0  0
 26 27  2  0  0  0  0
 26 30  1  0  0  0  0
 27 29  1  0  0  0  0
 27 31  1  0  0  0  0
 28 54  1  0  0  0  0
 28 55  1  0  0  0  0
 28 56  1  0  0  0  0
 29 32  2  0  0  0  0
 30 33  2  0  0  0  0
 30 57  1  0  0  0  0
 31 34  2  0  0  0  0
 31 58  1  0  0  0  0
 32 33  1  0  0  0  0
 32 59  1  0  0  0  0
 33 60  1  0  0  0  0
 34 35  1  0  0  0  0
 34 61  1  0  0  0  0
 35 36  1  0  0  0  0
 36 62  1  0  0  0  0
 36 63  1  0  0  0  0
 36 64  1  0  0  0  0
M  END
> <PUBCHEM_COMPOUND_CID>
44454382

> <PUBCHEM_COMPOUND_CANONICALIZED>
1

> <PUBCHEM_CACTVS_COMPLEXITY>
732

> <PUBCHEM_CACTVS_HBOND_ACCEPTOR>
6

> <PUBCHEM_CACTVS_HBOND_DONOR>
0

> <PUBCHEM_CACTVS_ROTATABLE_BOND>
6

> <PUBCHEM_CACTVS_SUBSKEYS>
AAADceB7gABEAAAAAAAAAAAAAAAAAWLAAAA8WIAABYAAAFix/gAAHAYIAAAADArFXyS/8P8MGAiiAzZnZACS0C9xF7Ad2CA4dpiIaOLh25HUIAhoiALIyCcQgMAOgAAAQAASAAAAAACAACQAAAAAAAAAAA==

> <PUBCHEM_IUPAC_OPENEYE_NAME>
4-chloro-12-[3-[[4-methyl-5-(2-methyl-5-quinolyl)-1,2,4-triazol-3-yl]sulfanyl]propyl]-2,8,12-triazatricyclo[7.5.0.02,7]tetradeca-1(9),3,5,7-tetraene

> <PUBCHEM_IUPAC_CAS_NAME>
4-chloro-12-[3-[[4-methyl-5-(2-methyl-5-quinolinyl)-1,2,4-triazol-3-yl]thio]propyl]-2,8,12-triazatricyclo[7.5.0.02,7]tetradeca-1(9),3,5,7-tetraene

> <PUBCHEM_IUPAC_NAME_MARKUP>
4-chloro-12-[3-[[4-methyl-5-(2-methylquinolin-5-yl)-1,2,4-triazol-3-yl]sulfanyl]propyl]-2,8,12-triazatricyclo[7.5.0.0<SUP>2,7</SUP>]tetradeca-1(9),3,5,7-tetraene

> <PUBCHEM_IUPAC_NAME>
4-chloro-12-[3-[[4-methyl-5-(2-methylquinolin-5-yl)-1,2,4-triazol-3-yl]sulfanyl]propyl]-2,8,12-triazatricyclo[7.5.0.02,7]tetradeca-1(9),3,5,7-tetraene

> <PUBCHEM_IUPAC_SYSTEMATIC_NAME>
4-chloranyl-12-[3-[[4-methyl-5-(2-methylquinolin-5-yl)-1,2,4-triazol-3-yl]sulfanyl]propyl]-2,8,12-triazatricyclo[7.5.0.02,7]tetradeca-1(9),3,5,7-tetraene

> <PUBCHEM_IUPAC_TRADITIONAL_NAME>
4-chloro-12-[3-[[4-methyl-5-(2-methyl-5-quinolyl)-1,2,4-triazol-3-yl]thio]propyl]-2,8,12-triazatricyclo[7.5.0.02,7]tetradeca-1(9),3,5,7-tetraene

> <PUBCHEM_IUPAC_INCHI>
InChI=1S/C27H28ClN7S/c1-18-7-9-20-21(5-3-6-22(20)29-18)26-31-32-27(33(26)2)36-16-4-13-34-14-11-23-24(12-15-34)35-17-19(28)8-10-25(35)30-23/h3,5-10,17H,4,11-16H2,1-2H3

> <PUBCHEM_IUPAC_INCHIKEY>
YNRYXTYLZKMJRP-UHFFFAOYSA-N

> <PUBCHEM_XLOGP3_AA>
5.5

> <PUBCHEM_EXACT_MASS>
517.1815428

> <PUBCHEM_MOLECULAR_FORMULA>
C27H28ClN7S

> <PUBCHEM_MOLECULAR_WEIGHT>
518.1

> <PUBCHEM_OPENEYE_CAN_SMILES>
CC1=NC2=CC=CC(=C2C=C1)C3=NN=C(N3C)SCCCN4CCC5=C(CC4)N6C=C(C=CC6=N5)Cl

> <PUBCHEM_OPENEYE_ISO_SMILES>
CC1=NC2=CC=CC(=C2C=C1)C3=NN=C(N3C)SCCCN4CCC5=C(CC4)N6C=C(C=CC6=N5)Cl

> <PUBCHEM_CACTVS_TPSA>
89.4

> <PUBCHEM_MONOISOTOPIC_WEIGHT>
517.1815428

> <PUBCHEM_TOTAL_CHARGE>
0

> <PUBCHEM_HEAVY_ATOM_COUNT>
36

> <PUBCHEM_ATOM_DEF_STEREO_COUNT>
0

> <PUBCHEM_ATOM_UDEF_STEREO_COUNT>
0

> <PUBCHEM_BOND_DEF_STEREO_COUNT>
0

> <PUBCHEM_BOND_UDEF_STEREO_COUNT>
0

> <PUBCHEM_ISOTOPIC_ATOM_COUNT>
0

> <PUBCHEM_COMPONENT_COUNT>
1

> <PUBCHEM_CACTVS_TAUTO_COUNT>
-1

> <PUBCHEM_COORDINATE_TYPE>
1
5
255

> <PUBCHEM_BONDANNOTATIONS>
13  15  8
18  21  8
20  22  8
21  23  8
22  23  8
26  27  8
26  30  8
27  29  8
27  31  8
29  32  8
30  33  8
31  34  8
32  33  8
34  35  8
4  13  8
4  18  8
4  20  8
5  15  8
5  18  8
6  24  8
6  25  8
7  24  8
7  8  8
8  25  8
9  29  8
9  35  8

$$$$
