11090403
  -OEChem-09292322512D

 56 59  0     0  0  0  0  0  0999 V2000
    2.8660   -1.5173    0.0000 O   0  0  0  0  0  0  0  0  0  0  0  0
    2.0000   -5.0173    0.0000 O   0  0  0  0  0  0  0  0  0  0  0  0
    5.4641    0.9827    0.0000 N   0  0  0  0  0  0  0  0  0  0  0  0
    5.4641    2.9827    0.0000 N   0  0  0  0  0  0  0  0  0  0  0  0
    4.5981   -1.5173    0.0000 N   0  0  0  0  0  0  0  0  0  0  0  0
    6.3301    1.4827    0.0000 C   0  0  0  0  0  0  0  0  0  0  0  0
    4.5981    1.4827    0.0000 C   0  0  0  0  0  0  0  0  0  0  0  0
    6.3301    2.4827    0.0000 C   0  0  0  0  0  0  0  0  0  0  0  0
    4.5981    2.4827    0.0000 C   0  0  0  0  0  0  0  0  0  0  0  0
    5.4641   -0.0173    0.0000 C   0  0  0  0  0  0  0  0  0  0  0  0
    5.4641    3.9827    0.0000 C   0  0  0  0  0  0  0  0  0  0  0  0
    4.5981   -0.5173    0.0000 C   0  0  0  0  0  0  0  0  0  0  0  0
    6.3301    4.4827    0.0000 C   0  0  0  0  0  0  0  0  0  0  0  0
    4.5981    4.4827    0.0000 C   0  0  0  0  0  0  0  0  0  0  0  0
    6.3301    5.4827    0.0000 C   0  0  0  0  0  0  0  0  0  0  0  0
    7.2241    3.9480    0.0000 C   0  0  0  0  0  0  0  0  0  0  0  0
    4.5981    5.4827    0.0000 C   0  0  0  0  0  0  0  0  0  0  0  0
    5.4641    5.9827    0.0000 C   0  0  0  0  0  0  0  0  0  0  0  0
    7.2241    6.0173    0.0000 C   0  0  0  0  0  0  0  0  0  0  0  0
    8.1301    4.4618    0.0000 C   0  0  0  0  0  0  0  0  0  0  0  0
    3.7320   -2.0173    0.0000 C   0  0  0  0  0  0  0  0  0  0  0  0
    8.1301    5.5035    0.0000 C   0  0  0  0  0  0  0  0  0  0  0  0
    3.7320   -3.0173    0.0000 C   0  0  0  0  0  0  0  0  0  0  0  0
    2.8660   -3.5173    0.0000 C   0  0  0  0  0  0  0  0  0  0  0  0
    4.5981   -3.5173    0.0000 C   0  0  0  0  0  0  0  0  0  0  0  0
    2.8660   -4.5173    0.0000 C   0  0  0  0  0  0  0  0  0  0  0  0
    4.5981   -4.5173    0.0000 C   0  0  0  0  0  0  0  0  0  0  0  0
    3.7320   -5.0173    0.0000 C   0  0  0  0  0  0  0  0  0  0  0  0
    2.0000   -6.0173    0.0000 C   0  0  0  0  0  0  0  0  0  0  0  0
    6.5422    0.9001    0.0000 H   0  0  0  0  0  0  0  0  0  0  0  0
    6.9407    1.5903    0.0000 H   0  0  0  0  0  0  0  0  0  0  0  0
    3.9875    1.5903    0.0000 H   0  0  0  0  0  0  0  0  0  0  0  0
    4.3860    0.9001    0.0000 H   0  0  0  0  0  0  0  0  0  0  0  0
    6.9407    2.3750    0.0000 H   0  0  0  0  0  0  0  0  0  0  0  0
    6.5422    3.0653    0.0000 H   0  0  0  0  0  0  0  0  0  0  0  0
    4.3860    3.0653    0.0000 H   0  0  0  0  0  0  0  0  0  0  0  0
    3.9875    2.3750    0.0000 H   0  0  0  0  0  0  0  0  0  0  0  0
    5.6762   -0.5999    0.0000 H   0  0  0  0  0  0  0  0  0  0  0  0
    6.0747    0.0903    0.0000 H   0  0  0  0  0  0  0  0  0  0  0  0
    4.3860    0.0653    0.0000 H   0  0  0  0  0  0  0  0  0  0  0  0
    3.9875   -0.6250    0.0000 H   0  0  0  0  0  0  0  0  0  0  0  0
    4.0611    4.1727    0.0000 H   0  0  0  0  0  0  0  0  0  0  0  0
    5.1350   -1.8273    0.0000 H   0  0  0  0  0  0  0  0  0  0  0  0
    7.2169    3.3280    0.0000 H   0  0  0  0  0  0  0  0  0  0  0  0
    4.0611    5.7927    0.0000 H   0  0  0  0  0  0  0  0  0  0  0  0
    5.4641    6.6027    0.0000 H   0  0  0  0  0  0  0  0  0  0  0  0
    7.2169    6.6373    0.0000 H   0  0  0  0  0  0  0  0  0  0  0  0
    8.6659    4.1498    0.0000 H   0  0  0  0  0  0  0  0  0  0  0  0
    8.6659    5.8156    0.0000 H   0  0  0  0  0  0  0  0  0  0  0  0
    2.3291   -3.2073    0.0000 H   0  0  0  0  0  0  0  0  0  0  0  0
    5.1350   -3.2073    0.0000 H   0  0  0  0  0  0  0  0  0  0  0  0
    5.1350   -4.8273    0.0000 H   0  0  0  0  0  0  0  0  0  0  0  0
    3.7320   -5.6373    0.0000 H   0  0  0  0  0  0  0  0  0  0  0  0
    1.3800   -6.0173    0.0000 H   0  0  0  0  0  0  0  0  0  0  0  0
    2.0000   -6.6373    0.0000 H   0  0  0  0  0  0  0  0  0  0  0  0
    2.6200   -6.0173    0.0000 H   0  0  0  0  0  0  0  0  0  0  0  0
  1 21  2  0  0  0  0
  2 26  1  0  0  0  0
  2 29  1  0  0  0  0
  3  6  1  0  0  0  0
  3  7  1  0  0  0  0
  3 10  1  0  0  0  0
  4  8  1  0  0  0  0
  4  9  1  0  0  0  0
  4 11  1  0  0  0  0
  5 12  1  0  0  0  0
  5 21  1  0  0  0  0
  5 43  1  0  0  0  0
  6  8  1  0  0  0  0
  6 30  1  0  0  0  0
  6 31  1  0  0  0  0
  7  9  1  0  0  0  0
  7 32  1  0  0  0  0
  7 33  1  0  0  0  0
  8 34  1  0  0  0  0
  8 35  1  0  0  0  0
  9 36  1  0  0  0  0
  9 37  1  0  0  0  0
 10 12  1  0  0  0  0
 10 38  1  0  0  0  0
 10 39  1  0  0  0  0
 11 13  1  0  0  0  0
 11 14  2  0  0  0  0
 12 40  1  0  0  0  0
 12 41  1  0  0  0  0
 13 15  1  0  0  0  0
 13 16  2  0  0  0  0
 14 17  1  0  0  0  0
 14 42  1  0  0  0  0
 15 18  1  0  0  0  0
 15 19  2  0  0  0  0
 16 20  1  0  0  0  0
 16 44  1  0  0  0  0
 17 18  2  0  0  0  0
 17 45  1  0  0  0  0
 18 46  1  0  0  0  0
 19 22  1  0  0  0  0
 19 47  1  0  0  0  0
 20 22  2  0  0  0  0
 20 48  1  0  0  0  0
 21 23  1  0  0  0  0
 22 49  1  0  0  0  0
 23 24  2  0  0  0  0
 23 25  1  0  0  0  0
 24 26  1  0  0  0  0
 24 50  1  0  0  0  0
 25 27  2  0  0  0  0
 25 51  1  0  0  0  0
 26 28  2  0  0  0  0
 27 28  1  0  0  0  0
 27 52  1  0  0  0  0
 28 53  1  0  0  0  0
 29 54  1  0  0  0  0
 29 55  1  0  0  0  0
 29 56  1  0  0  0  0
M  END
> <PUBCHEM_COMPOUND_CID>
11090403

> <PUBCHEM_COMPOUND_CANONICALIZED>
1

> <PUBCHEM_CACTVS_COMPLEXITY>
520

> <PUBCHEM_CACTVS_HBOND_ACCEPTOR>
4

> <PUBCHEM_CACTVS_HBOND_DONOR>
1

> <PUBCHEM_CACTVS_ROTATABLE_BOND>
6

> <PUBCHEM_CACTVS_SUBSKEYS>
AAADceB7MAAAAAAAAAAAAAAAAAAAAAAAAAA8YMEAAAAAAADBVAAAHgAQAAAADAzBmAYyxsPABACIAiVSUACCCAAlIgAIiIEObMgMZjLEtZuUMShk1hHI6Ye6yJCOgAABQAASAAAAAAKAACQAAAAAAAAAAA==

> <PUBCHEM_IUPAC_OPENEYE_NAME>
3-methoxy-N-[2-[4-(1-naphthyl)piperazin-1-yl]ethyl]benzamide

> <PUBCHEM_IUPAC_CAS_NAME>
3-methoxy-N-[2-[4-(1-naphthalenyl)-1-piperazinyl]ethyl]benzamide

> <PUBCHEM_IUPAC_NAME_MARKUP>
3-methoxy-<I>N</I>-[2-(4-naphthalen-1-ylpiperazin-1-yl)ethyl]benzamide

> <PUBCHEM_IUPAC_NAME>
3-methoxy-N-[2-(4-naphthalen-1-ylpiperazin-1-yl)ethyl]benzamide

> <PUBCHEM_IUPAC_SYSTEMATIC_NAME>
3-methoxy-N-[2-(4-naphthalen-1-ylpiperazin-1-yl)ethyl]benzamide

> <PUBCHEM_IUPAC_TRADITIONAL_NAME>
3-methoxy-N-[2-[4-(1-naphthyl)piperazino]ethyl]benzamide

> <PUBCHEM_IUPAC_INCHI>
InChI=1S/C24H27N3O2/c1-29-21-9-4-8-20(18-21)24(28)25-12-13-26-14-16-27(17-15-26)23-11-5-7-19-6-2-3-10-22(19)23/h2-11,18H,12-17H2,1H3,(H,25,28)

> <PUBCHEM_IUPAC_INCHIKEY>
LNJYRDUSWBJTCS-UHFFFAOYSA-N

> <PUBCHEM_XLOGP3_AA>
4.1

> <PUBCHEM_EXACT_MASS>
389.21032711

> <PUBCHEM_MOLECULAR_FORMULA>
C24H27N3O2

> <PUBCHEM_MOLECULAR_WEIGHT>
389.5

> <PUBCHEM_OPENEYE_CAN_SMILES>
COC1=CC=CC(=C1)C(=O)NCCN2CCN(CC2)C3=CC=CC4=CC=CC=C43

> <PUBCHEM_OPENEYE_ISO_SMILES>
COC1=CC=CC(=C1)C(=O)NCCN2CCN(CC2)C3=CC=CC4=CC=CC=C43

> <PUBCHEM_CACTVS_TPSA>
44.8

> <PUBCHEM_MONOISOTOPIC_WEIGHT>
389.21032711

> <PUBCHEM_TOTAL_CHARGE>
0

> <PUBCHEM_HEAVY_ATOM_COUNT>
29

> <PUBCHEM_ATOM_DEF_STEREO_COUNT>
0

> <PUBCHEM_ATOM_UDEF_STEREO_COUNT>
0

> <PUBCHEM_BOND_DEF_STEREO_COUNT>
0

> <PUBCHEM_BOND_UDEF_STEREO_COUNT>
0

> <PUBCHEM_ISOTOPIC_ATOM_COUNT>
0

> <PUBCHEM_COMPONENT_COUNT>
1

> <PUBCHEM_CACTVS_TAUTO_COUNT>
-1

> <PUBCHEM_COORDINATE_TYPE>
1
5
255

> <PUBCHEM_BONDANNOTATIONS>
11  13  8
11  14  8
13  15  8
13  16  8
14  17  8
15  18  8
15  19  8
16  20  8
17  18  8
19  22  8
20  22  8
23  24  8
23  25  8
24  26  8
25  27  8
26  28  8
27  28  8

$$$$
