57326691
  -OEChem-09292322052D

104111  0     0  0  0  0  0  0999 V2000
    4.5096   -4.8270    0.0000 Cl  0  0  0  0  0  0  0  0  0  0  0  0
    8.7204    4.8270    0.0000 Cl  0  0  0  0  0  0  0  0  0  0  0  0
    9.2131   -2.0000    0.0000 O   0  0  0  0  0  0  0  0  0  0  0  0
    4.0170    2.0000    0.0000 O   0  0  0  0  0  0  0  0  0  0  0  0
    9.2809   -6.5916    0.0000 N   0  0  0  0  0  0  0  0  0  0  0  0
    3.9491    6.5916    0.0000 N   0  0  0  0  0  0  0  0  0  0  0  0
   10.1487   -8.3936    0.0000 N   0  0  0  0  0  0  0  0  0  0  0  0
    3.0814    8.3936    0.0000 N   0  0  0  0  0  0  0  0  0  0  0  0
    8.3470   -3.5000    0.0000 N   0  0  0  0  0  0  0  0  0  0  0  0
    4.8830    3.5000    0.0000 N   0  0  0  0  0  0  0  0  0  0  0  0
    7.8470   -5.6906    0.0000 N   0  0  0  0  0  0  0  0  0  0  0  0
    5.3830    5.6906    0.0000 N   0  0  0  0  0  0  0  0  0  0  0  0
    8.7176   -7.4179    0.0000 C   0  0  0  0  0  0  0  0  0  0  0  0
   10.2781   -6.6664    0.0000 C   0  0  0  0  0  0  0  0  0  0  0  0
    4.5125    7.4179    0.0000 C   0  0  0  0  0  0  0  0  0  0  0  0
    2.9519    6.6664    0.0000 C   0  0  0  0  0  0  0  0  0  0  0  0
    9.1514   -8.3188    0.0000 C   0  0  0  0  0  0  0  0  0  0  0  0
   10.7120   -7.5673    0.0000 C   0  0  0  0  0  0  0  0  0  0  0  0
    4.0786    8.3188    0.0000 C   0  0  0  0  0  0  0  0  0  0  0  0
    2.5180    7.5673    0.0000 C   0  0  0  0  0  0  0  0  0  0  0  0
    8.8470   -5.6907    0.0000 C   0  0  0  0  0  0  0  0  0  0  0  0
    4.3830    5.6907    0.0000 C   0  0  0  0  0  0  0  0  0  0  0  0
    9.4705   -4.9088    0.0000 C   0  0  0  0  0  0  0  0  0  0  0  0
    3.7595    4.9088    0.0000 C   0  0  0  0  0  0  0  0  0  0  0  0
   10.5825   -9.2945    0.0000 C   0  0  0  0  0  0  0  0  0  0  0  0
    2.6475    9.2945    0.0000 C   0  0  0  0  0  0  0  0  0  0  0  0
    9.2480   -3.9339    0.0000 C   0  0  0  0  0  0  0  0  0  0  0  0
    3.9820    3.9339    0.0000 C   0  0  0  0  0  0  0  0  0  0  0  0
    6.6150   -0.5000    0.0000 C   0  0  0  0  0  0  0  0  0  0  0  0
    6.6150    0.5000    0.0000 C   0  0  0  0  0  0  0  0  0  0  0  0
    7.4810   -1.0000    0.0000 C   0  0  0  0  0  0  0  0  0  0  0  0
    5.7490    1.0000    0.0000 C   0  0  0  0  0  0  0  0  0  0  0  0
    7.4810   -2.0000    0.0000 C   0  0  0  0  0  0  0  0  0  0  0  0
    5.7490    2.0000    0.0000 C   0  0  0  0  0  0  0  0  0  0  0  0
    7.4461   -3.9339    0.0000 C   0  0  0  0  0  0  0  0  0  0  0  0
    5.7840    3.9339    0.0000 C   0  0  0  0  0  0  0  0  0  0  0  0
    7.2235   -4.9088    0.0000 C   0  0  0  0  0  0  0  0  0  0  0  0
    6.0065    4.9088    0.0000 C   0  0  0  0  0  0  0  0  0  0  0  0
    8.3470   -2.5000    0.0000 C   0  0  0  0  0  0  0  0  0  0  0  0
    4.8830    2.5000    0.0000 C   0  0  0  0  0  0  0  0  0  0  0  0
   10.4610   -5.2312    0.0000 C   0  0  0  0  0  0  0  0  0  0  0  0
    2.7690    5.2312    0.0000 C   0  0  0  0  0  0  0  0  0  0  0  0
   10.0006   -3.2137    0.0000 C   0  0  0  0  0  0  0  0  0  0  0  0
    3.2295    3.2137    0.0000 C   0  0  0  0  0  0  0  0  0  0  0  0
    6.6935   -3.2137    0.0000 C   0  0  0  0  0  0  0  0  0  0  0  0
    6.5365    3.2137    0.0000 C   0  0  0  0  0  0  0  0  0  0  0  0
   11.2300   -4.5286    0.0000 C   0  0  0  0  0  0  0  0  0  0  0  0
    2.0000    4.5286    0.0000 C   0  0  0  0  0  0  0  0  0  0  0  0
    6.2330   -5.2311    0.0000 C   0  0  0  0  0  0  0  0  0  0  0  0
    6.9970    5.2311    0.0000 C   0  0  0  0  0  0  0  0  0  0  0  0
   10.9983   -3.5131    0.0000 C   0  0  0  0  0  0  0  0  0  0  0  0
    2.2318    3.5131    0.0000 C   0  0  0  0  0  0  0  0  0  0  0  0
    5.6958   -3.5130    0.0000 C   0  0  0  0  0  0  0  0  0  0  0  0
    7.5342    3.5130    0.0000 C   0  0  0  0  0  0  0  0  0  0  0  0
    5.4640   -4.5286    0.0000 C   0  0  0  0  0  0  0  0  0  0  0  0
    7.7660    4.5286    0.0000 C   0  0  0  0  0  0  0  0  0  0  0  0
    8.2737   -6.9850    0.0000 H   0  0  0  0  0  0  0  0  0  0  0  0
    8.2142   -7.7798    0.0000 H   0  0  0  0  0  0  0  0  0  0  0  0
   10.8749   -6.4984    0.0000 H   0  0  0  0  0  0  0  0  0  0  0  0
   10.2164   -6.0494    0.0000 H   0  0  0  0  0  0  0  0  0  0  0  0
    4.9563    6.9850    0.0000 H   0  0  0  0  0  0  0  0  0  0  0  0
    5.0159    7.7798    0.0000 H   0  0  0  0  0  0  0  0  0  0  0  0
    2.3551    6.4984    0.0000 H   0  0  0  0  0  0  0  0  0  0  0  0
    3.0137    6.0494    0.0000 H   0  0  0  0  0  0  0  0  0  0  0  0
    8.5546   -8.4868    0.0000 H   0  0  0  0  0  0  0  0  0  0  0  0
    9.2132   -8.9358    0.0000 H   0  0  0  0  0  0  0  0  0  0  0  0
   11.1558   -8.0002    0.0000 H   0  0  0  0  0  0  0  0  0  0  0  0
   11.2154   -7.2054    0.0000 H   0  0  0  0  0  0  0  0  0  0  0  0
    4.6754    8.4868    0.0000 H   0  0  0  0  0  0  0  0  0  0  0  0
    4.0168    8.9358    0.0000 H   0  0  0  0  0  0  0  0  0  0  0  0
    2.0742    8.0002    0.0000 H   0  0  0  0  0  0  0  0  0  0  0  0
    2.0146    7.2054    0.0000 H   0  0  0  0  0  0  0  0  0  0  0  0
   10.0239   -9.5636    0.0000 H   0  0  0  0  0  0  0  0  0  0  0  0
   10.8515   -9.8532    0.0000 H   0  0  0  0  0  0  0  0  0  0  0  0
   11.1411   -9.0255    0.0000 H   0  0  0  0  0  0  0  0  0  0  0  0
    3.2061    9.5636    0.0000 H   0  0  0  0  0  0  0  0  0  0  0  0
    2.3785    9.8532    0.0000 H   0  0  0  0  0  0  0  0  0  0  0  0
    2.0889    9.0255    0.0000 H   0  0  0  0  0  0  0  0  0  0  0  0
    6.0044   -0.3923    0.0000 H   0  0  0  0  0  0  0  0  0  0  0  0
    6.4030   -1.0826    0.0000 H   0  0  0  0  0  0  0  0  0  0  0  0
    7.2256    0.3923    0.0000 H   0  0  0  0  0  0  0  0  0  0  0  0
    6.8271    1.0826    0.0000 H   0  0  0  0  0  0  0  0  0  0  0  0
    8.0916   -1.1077    0.0000 H   0  0  0  0  0  0  0  0  0  0  0  0
    7.6931   -0.4174    0.0000 H   0  0  0  0  0  0  0  0  0  0  0  0
    5.1384    1.1077    0.0000 H   0  0  0  0  0  0  0  0  0  0  0  0
    5.5369    0.4174    0.0000 H   0  0  0  0  0  0  0  0  0  0  0  0
    6.8704   -1.8923    0.0000 H   0  0  0  0  0  0  0  0  0  0  0  0
    7.2690   -2.5826    0.0000 H   0  0  0  0  0  0  0  0  0  0  0  0
    6.3596    1.8923    0.0000 H   0  0  0  0  0  0  0  0  0  0  0  0
    5.9611    2.5826    0.0000 H   0  0  0  0  0  0  0  0  0  0  0  0
   10.5920   -5.8372    0.0000 H   0  0  0  0  0  0  0  0  0  0  0  0
    2.6380    5.8372    0.0000 H   0  0  0  0  0  0  0  0  0  0  0  0
    9.8556   -2.6109    0.0000 H   0  0  0  0  0  0  0  0  0  0  0  0
    3.3744    2.6109    0.0000 H   0  0  0  0  0  0  0  0  0  0  0  0
    6.8385   -2.6109    0.0000 H   0  0  0  0  0  0  0  0  0  0  0  0
    6.3916    2.6109    0.0000 H   0  0  0  0  0  0  0  0  0  0  0  0
   11.8218   -4.7136    0.0000 H   0  0  0  0  0  0  0  0  0  0  0  0
    1.4083    4.7136    0.0000 H   0  0  0  0  0  0  0  0  0  0  0  0
    6.1021   -5.8372    0.0000 H   0  0  0  0  0  0  0  0  0  0  0  0
    7.1280    5.8372    0.0000 H   0  0  0  0  0  0  0  0  0  0  0  0
   11.4511   -3.0896    0.0000 H   0  0  0  0  0  0  0  0  0  0  0  0
    1.7789    3.0896    0.0000 H   0  0  0  0  0  0  0  0  0  0  0  0
    5.2430   -3.0896    0.0000 H   0  0  0  0  0  0  0  0  0  0  0  0
    7.9871    3.0896    0.0000 H   0  0  0  0  0  0  0  0  0  0  0  0
  1 55  1  0  0  0  0
  2 56  1  0  0  0  0
  3 39  2  0  0  0  0
  4 40  2  0  0  0  0
  5 13  1  0  0  0  0
  5 14  1  0  0  0  0
  5 21  1  0  0  0  0
  6 15  1  0  0  0  0
  6 16  1  0  0  0  0
  6 22  1  0  0  0  0
  7 17  1  0  0  0  0
  7 18  1  0  0  0  0
  7 25  1  0  0  0  0
  8 19  1  0  0  0  0
  8 20  1  0  0  0  0
  8 26  1  0  0  0  0
  9 27  1  0  0  0  0
  9 35  1  0  0  0  0
  9 39  1  0  0  0  0
 10 28  1  0  0  0  0
 10 36  1  0  0  0  0
 10 40  1  0  0  0  0
 11 21  2  0  0  0  0
 11 37  1  0  0  0  0
 12 22  2  0  0  0  0
 12 38  1  0  0  0  0
 13 17  1  0  0  0  0
 13 57  1  0  0  0  0
 13 58  1  0  0  0  0
 14 18  1  0  0  0  0
 14 59  1  0  0  0  0
 14 60  1  0  0  0  0
 15 19  1  0  0  0  0
 15 61  1  0  0  0  0
 15 62  1  0  0  0  0
 16 20  1  0  0  0  0
 16 63  1  0  0  0  0
 16 64  1  0  0  0  0
 17 65  1  0  0  0  0
 17 66  1  0  0  0  0
 18 67  1  0  0  0  0
 18 68  1  0  0  0  0
 19 69  1  0  0  0  0
 19 70  1  0  0  0  0
 20 71  1  0  0  0  0
 20 72  1  0  0  0  0
 21 23  1  0  0  0  0
 22 24  1  0  0  0  0
 23 27  1  0  0  0  0
 23 41  2  0  0  0  0
 24 28  1  0  0  0  0
 24 42  2  0  0  0  0
 25 73  1  0  0  0  0
 25 74  1  0  0  0  0
 25 75  1  0  0  0  0
 26 76  1  0  0  0  0
 26 77  1  0  0  0  0
 26 78  1  0  0  0  0
 27 43  2  0  0  0  0
 28 44  2  0  0  0  0
 29 30  1  0  0  0  0
 29 31  1  0  0  0  0
 29 79  1  0  0  0  0
 29 80  1  0  0  0  0
 30 32  1  0  0  0  0
 30 81  1  0  0  0  0
 30 82  1  0  0  0  0
 31 33  1  0  0  0  0
 31 83  1  0  0  0  0
 31 84  1  0  0  0  0
 32 34  1  0  0  0  0
 32 85  1  0  0  0  0
 32 86  1  0  0  0  0
 33 39  1  0  0  0  0
 33 87  1  0  0  0  0
 33 88  1  0  0  0  0
 34 40  1  0  0  0  0
 34 89  1  0  0  0  0
 34 90  1  0  0  0  0
 35 37  2  0  0  0  0
 35 45  1  0  0  0  0
 36 38  2  0  0  0  0
 36 46  1  0  0  0  0
 37 49  1  0  0  0  0
 38 50  1  0  0  0  0
 41 47  1  0  0  0  0
 41 91  1  0  0  0  0
 42 48  1  0  0  0  0
 42 92  1  0  0  0  0
 43 51  1  0  0  0  0
 43 93  1  0  0  0  0
 44 52  1  0  0  0  0
 44 94  1  0  0  0  0
 45 53  2  0  0  0  0
 45 95  1  0  0  0  0
 46 54  2  0  0  0  0
 46 96  1  0  0  0  0
 47 51  2  0  0  0  0
 47 97  1  0  0  0  0
 48 52  2  0  0  0  0
 48 98  1  0  0  0  0
 49 55  2  0  0  0  0
 49 99  1  0  0  0  0
 50 56  2  0  0  0  0
 50100  1  0  0  0  0
 51101  1  0  0  0  0
 52102  1  0  0  0  0
 53 55  1  0  0  0  0
 53103  1  0  0  0  0
 54 56  1  0  0  0  0
 54104  1  0  0  0  0
M  END
> <PUBCHEM_COMPOUND_CID>
57326691

> <PUBCHEM_COMPOUND_CANONICALIZED>
1

> <PUBCHEM_CACTVS_COMPLEXITY>
1310

> <PUBCHEM_CACTVS_HBOND_ACCEPTOR>
6

> <PUBCHEM_CACTVS_HBOND_DONOR>
0

> <PUBCHEM_CACTVS_ROTATABLE_BOND>
9

> <PUBCHEM_CACTVS_SUBSKEYS>
AAADcfB/8AAGAAAAAAAAAAAAAAAAAAAAAAA8eMGCBAgAAAABVAAAHgIAAAAADArBmCQzwIMAAACoAidydACCAAEhBwAJiAEodpgIYPLB25GUIAhghADIyAcYiICOAABAAAICACAAAIAABAQAQAAAAAAAAA==

> <PUBCHEM_IUPAC_OPENEYE_NAME>
1,8-bis[3-chloro-6-(4-methylpiperazin-1-yl)benzo[b][1,4]benzodiazepin-11-yl]octane-1,8-dione

> <PUBCHEM_IUPAC_CAS_NAME>
1,8-bis[3-chloro-6-(4-methyl-1-piperazinyl)-11-benzo[b][1,4]benzodiazepinyl]octane-1,8-dione

> <PUBCHEM_IUPAC_NAME_MARKUP>
1,8-bis[3-chloro-6-(4-methylpiperazin-1-yl)benzo[b][1,4]benzodiazepin-11-yl]octane-1,8-dione

> <PUBCHEM_IUPAC_NAME>
1,8-bis[3-chloro-6-(4-methylpiperazin-1-yl)benzo[b][1,4]benzodiazepin-11-yl]octane-1,8-dione

> <PUBCHEM_IUPAC_SYSTEMATIC_NAME>
1,8-bis[3-chloranyl-6-(4-methylpiperazin-1-yl)benzo[b][1,4]benzodiazepin-11-yl]octane-1,8-dione

> <PUBCHEM_IUPAC_TRADITIONAL_NAME>
1,8-bis[3-chloro-6-(4-methylpiperazino)benzo[b][1,4]benzodiazepin-11-yl]octane-1,8-dione

> <PUBCHEM_IUPAC_INCHI>
InChI=1S/C44H48Cl2N8O2/c1-49-21-25-51(26-22-49)43-33-11-7-9-13-37(33)53(39-19-17-31(45)29-35(39)47-43)41(55)15-5-3-4-6-16-42(56)54-38-14-10-8-12-34(38)44(52-27-23-50(2)24-28-52)48-36-30-32(46)18-20-40(36)54/h7-14,17-20,29-30H,3-6,15-16,21-28H2,1-2H3

> <PUBCHEM_IUPAC_INCHIKEY>
LEQPLCJILZPZJF-UHFFFAOYSA-N

> <PUBCHEM_XLOGP3_AA>
6.3

> <PUBCHEM_EXACT_MASS>
790.3277282

> <PUBCHEM_MOLECULAR_FORMULA>
C44H48Cl2N8O2

> <PUBCHEM_MOLECULAR_WEIGHT>
791.8

> <PUBCHEM_OPENEYE_CAN_SMILES>
CN1CCN(CC1)C2=NC3=C(C=CC(=C3)Cl)N(C4=CC=CC=C42)C(=O)CCCCCCC(=O)N5C6=C(C=C(C=C6)Cl)N=C(C7=CC=CC=C75)N8CCN(CC8)C

> <PUBCHEM_OPENEYE_ISO_SMILES>
CN1CCN(CC1)C2=NC3=C(C=CC(=C3)Cl)N(C4=CC=CC=C42)C(=O)CCCCCCC(=O)N5C6=C(C=C(C=C6)Cl)N=C(C7=CC=CC=C75)N8CCN(CC8)C

> <PUBCHEM_CACTVS_TPSA>
78.3

> <PUBCHEM_MONOISOTOPIC_WEIGHT>
790.3277282

> <PUBCHEM_TOTAL_CHARGE>
0

> <PUBCHEM_HEAVY_ATOM_COUNT>
56

> <PUBCHEM_ATOM_DEF_STEREO_COUNT>
0

> <PUBCHEM_ATOM_UDEF_STEREO_COUNT>
0

> <PUBCHEM_BOND_DEF_STEREO_COUNT>
0

> <PUBCHEM_BOND_UDEF_STEREO_COUNT>
0

> <PUBCHEM_ISOTOPIC_ATOM_COUNT>
0

> <PUBCHEM_COMPONENT_COUNT>
1

> <PUBCHEM_CACTVS_TAUTO_COUNT>
-1

> <PUBCHEM_COORDINATE_TYPE>
1
5
255

> <PUBCHEM_BONDANNOTATIONS>
23  27  8
23  41  8
24  28  8
24  42  8
27  43  8
28  44  8
35  37  8
35  45  8
36  38  8
36  46  8
37  49  8
38  50  8
41  47  8
42  48  8
43  51  8
44  52  8
45  53  8
46  54  8
47  51  8
48  52  8
49  55  8
50  56  8
53  55  8
54  56  8

$$$$
