49861266
  -OEChem-09292322282D

 46 48  0     1  0  0  0  0  0999 V2000
    8.4015    4.0148    0.0000 Cl  0  0  0  0  0  0  0  0  0  0  0  0
    4.9858    3.4603    0.0000 O   0  0  0  0  0  0  0  0  0  0  0  0
    1.3453    1.3718    0.0000 O   0  0  0  0  0  0  0  0  0  0  0  0
    3.1486    0.3121    0.0000 O   0  0  0  0  0  0  0  0  0  0  0  0
    4.0678    6.0088    0.0000 N   0  0  3  0  0  0  0  0  0  0  0  0
    4.0678    5.0088    0.0000 C   0  0  3  0  0  0  0  0  0  0  0  0
    3.2018    4.5088    0.0000 C   0  0  3  0  0  0  0  0  0  0  0  0
    2.3358    5.0088    0.0000 C   0  0  0  0  0  0  0  0  0  0  0  0
    3.2018    6.5088    0.0000 C   0  0  0  0  0  0  0  0  0  0  0  0
    4.9778    4.5019    0.0000 C   0  0  0  0  0  0  0  0  0  0  0  0
    3.1857    3.4673    0.0000 C   0  0  0  0  0  0  0  0  0  0  0  0
    2.3358    6.0088    0.0000 C   0  0  0  0  0  0  0  0  0  0  0  0
    4.9338    6.5088    0.0000 C   0  0  0  0  0  0  0  0  0  0  0  0
    4.0838    2.9395    0.0000 C   0  0  0  0  0  0  0  0  0  0  0  0
    1.4418    4.4741    0.0000 C   0  0  0  0  0  0  0  0  0  0  0  0
    4.9338    7.5088    0.0000 C   0  0  0  0  0  0  0  0  0  0  0  0
    2.2338    2.9466    0.0000 C   0  0  0  0  0  0  0  0  0  0  0  0
    1.4418    6.5434    0.0000 C   0  0  0  0  0  0  0  0  0  0  0  0
    4.0921    1.8546    0.0000 C   0  0  0  0  0  0  0  0  0  0  0  0
    0.5357    4.9880    0.0000 C   0  0  0  0  0  0  0  0  0  0  0  0
    0.5357    6.0296    0.0000 C   0  0  0  0  0  0  0  0  0  0  0  0
    2.2171    1.8618    0.0000 C   0  0  0  0  0  0  0  0  0  0  0  0
    3.1525    1.3121    0.0000 C   0  0  0  0  0  0  0  0  0  0  0  0
    5.7998    8.0088    0.0000 C   0  0  0  0  0  0  0  0  0  0  0  0
    4.6023    5.3229    0.0000 H   0  0  0  0  0  0  0  0  0  0  0  0
    2.6625    4.2029    0.0000 H   0  0  0  0  0  0  0  0  0  0  0  0
    3.6003    6.9837    0.0000 H   0  0  0  0  0  0  0  0  0  0  0  0
    2.8032    6.9837    0.0000 H   0  0  0  0  0  0  0  0  0  0  0  0
    5.5894    4.4006    0.0000 H   0  0  0  0  0  0  0  0  0  0  0  0
    5.1823    5.0872    0.0000 H   0  0  0  0  0  0  0  0  0  0  0  0
    5.1459    5.9262    0.0000 H   0  0  0  0  0  0  0  0  0  0  0  0
    5.5444    6.6164    0.0000 H   0  0  0  0  0  0  0  0  0  0  0  0
    1.4490    3.8542    0.0000 H   0  0  0  0  0  0  0  0  0  0  0  0
    4.7218    8.0914    0.0000 H   0  0  0  0  0  0  0  0  0  0  0  0
    4.3232    7.4011    0.0000 H   0  0  0  0  0  0  0  0  0  0  0  0
    1.7029    3.2669    0.0000 H   0  0  0  0  0  0  0  0  0  0  0  0
    1.4490    7.1634    0.0000 H   0  0  0  0  0  0  0  0  0  0  0  0
    4.6302    1.5466    0.0000 H   0  0  0  0  0  0  0  0  0  0  0  0
    0.0000    4.6759    0.0000 H   0  0  0  0  0  0  0  0  0  0  0  0
    0.0000    6.3417    0.0000 H   0  0  0  0  0  0  0  0  0  0  0  0
    6.1098    7.4718    0.0000 H   0  0  0  0  0  0  0  0  0  0  0  0
    6.3368    8.3188    0.0000 H   0  0  0  0  0  0  0  0  0  0  0  0
    5.4898    8.5457    0.0000 H   0  0  0  0  0  0  0  0  0  0  0  0
    1.3381    0.7519    0.0000 H   0  0  0  0  0  0  0  0  0  0  0  0
    3.6844    0.0000    0.0000 H   0  0  0  0  0  0  0  0  0  0  0  0
    9.4015    4.0148    0.0000 H   0  0  0  0  0  0  0  0  0  0  0  0
  1 46  1  0  0  0  0
  2 10  1  0  0  0  0
  2 14  1  0  0  0  0
  3 22  1  0  0  0  0
  3 44  1  0  0  0  0
  4 23  1  0  0  0  0
  4 45  1  0  0  0  0
  5  6  1  0  0  0  0
  5  9  1  0  0  0  0
  5 13  1  0  0  0  0
  6  7  1  0  0  0  0
  6 10  1  0  0  0  0
  6 25  1  0  0  0  0
  7  8  1  0  0  0  0
  7 11  1  0  0  0  0
  7 26  1  0  0  0  0
  8 12  1  0  0  0  0
  8 15  2  0  0  0  0
  9 12  1  0  0  0  0
  9 27  1  0  0  0  0
  9 28  1  0  0  0  0
 10 29  1  0  0  0  0
 10 30  1  0  0  0  0
 11 14  1  0  0  0  0
 11 17  2  0  0  0  0
 12 18  2  0  0  0  0
 13 16  1  0  0  0  0
 13 31  1  0  0  0  0
 13 32  1  0  0  0  0
 14 19  2  0  0  0  0
 15 20  1  0  0  0  0
 15 33  1  0  0  0  0
 16 24  1  0  0  0  0
 16 34  1  0  0  0  0
 16 35  1  0  0  0  0
 17 22  1  0  0  0  0
 17 36  1  0  0  0  0
 18 21  1  0  0  0  0
 18 37  1  0  0  0  0
 19 23  1  0  0  0  0
 19 38  1  0  0  0  0
 20 21  2  0  0  0  0
 20 39  1  0  0  0  0
 21 40  1  0  0  0  0
 22 23  2  0  0  0  0
 24 41  1  0  0  0  0
 24 42  1  0  0  0  0
 24 43  1  0  0  0  0
M  END
> <PUBCHEM_COMPOUND_CID>
49861266

> <PUBCHEM_COMPOUND_CANONICALIZED>
1

> <PUBCHEM_CACTVS_COMPLEXITY>
417

> <PUBCHEM_CACTVS_HBOND_ACCEPTOR>
4

> <PUBCHEM_CACTVS_HBOND_DONOR>
3

> <PUBCHEM_CACTVS_ROTATABLE_BOND>
2

> <PUBCHEM_CACTVS_SUBSKEYS>
AAADceB6MAAEAAAAAAAAAAAAAAAAAAAAAAA8aIEAAAAAAACxQAAAHgAACAAADSzhmAYyBoMABgCAAiBCAACCCAAgIAAIiAAOjIgPJyKGsRuHeCnlwBWZuAfw8P8OoQABCAAYQABCAAIQADCAAAAAAAAAAA==

> <PUBCHEM_IUPAC_OPENEYE_NAME>
7-propyl-6,6a,8,12b-tetrahydrochromeno[3,4-c]isoquinoline-2,3-diol;hydrochloride

> <PUBCHEM_IUPAC_CAS_NAME>
7-propyl-6,6a,8,12b-tetrahydro[1]benzopyrano[3,4-c]isoquinoline-2,3-diol;hydrochloride

> <PUBCHEM_IUPAC_NAME_MARKUP>
7-propyl-6,6<I>a</I>,8,12<I>b</I>-tetrahydrochromeno[3,4-c]isoquinoline-2,3-diol;hydrochloride

> <PUBCHEM_IUPAC_NAME>
7-propyl-6,6a,8,12b-tetrahydrochromeno[3,4-c]isoquinoline-2,3-diol;hydrochloride

> <PUBCHEM_IUPAC_SYSTEMATIC_NAME>
7-propyl-6,6a,8,12b-tetrahydrochromeno[3,4-c]isoquinoline-2,3-diol;hydrochloride

> <PUBCHEM_IUPAC_TRADITIONAL_NAME>
7-propyl-6,6a,8,12b-tetrahydrochromen[3,4-c]isoquinoline-2,3-diol;hydrochloride

> <PUBCHEM_IUPAC_INCHI>
InChI=1S/C19H21NO3.ClH/c1-2-7-20-10-12-5-3-4-6-13(12)19-14-8-16(21)17(22)9-18(14)23-11-15(19)20;/h3-6,8-9,15,19,21-22H,2,7,10-11H2,1H3;1H

> <PUBCHEM_IUPAC_INCHIKEY>
JJVMZJUGBIGJRB-UHFFFAOYSA-N

> <PUBCHEM_EXACT_MASS>
347.1288213

> <PUBCHEM_MOLECULAR_FORMULA>
C19H22ClNO3

> <PUBCHEM_MOLECULAR_WEIGHT>
347.8

> <PUBCHEM_OPENEYE_CAN_SMILES>
CCCN1CC2=CC=CC=C2C3C1COC4=CC(=C(C=C34)O)O.Cl

> <PUBCHEM_OPENEYE_ISO_SMILES>
CCCN1CC2=CC=CC=C2C3C1COC4=CC(=C(C=C34)O)O.Cl

> <PUBCHEM_CACTVS_TPSA>
52.9

> <PUBCHEM_MONOISOTOPIC_WEIGHT>
347.1288213

> <PUBCHEM_TOTAL_CHARGE>
0

> <PUBCHEM_HEAVY_ATOM_COUNT>
24

> <PUBCHEM_ATOM_DEF_STEREO_COUNT>
0

> <PUBCHEM_ATOM_UDEF_STEREO_COUNT>
2

> <PUBCHEM_BOND_DEF_STEREO_COUNT>
0

> <PUBCHEM_BOND_UDEF_STEREO_COUNT>
0

> <PUBCHEM_ISOTOPIC_ATOM_COUNT>
0

> <PUBCHEM_COMPONENT_COUNT>
2

> <PUBCHEM_CACTVS_TAUTO_COUNT>
-1

> <PUBCHEM_COORDINATE_TYPE>
1
5
255

> <PUBCHEM_BONDANNOTATIONS>
11  14  8
11  17  8
12  18  8
14  19  8
15  20  8
17  22  8
18  21  8
19  23  8
20  21  8
22  23  8
6  10  3
7  8  3
8  12  8
8  15  8

$$$$
