71716758
  -OEChem-09292322072D

 64 69  0     1  0  0  0  0  0999 V2000
    6.8671   -1.1950    0.0000 O   0  0  0  0  0  0  0  0  0  0  0  0
    5.1350   -1.1950    0.0000 O   0  0  0  0  0  0  0  0  0  0  0  0
    6.8671   -3.1950    0.0000 O   0  0  0  0  0  0  0  0  0  0  0  0
    5.1350   -4.1950    0.0000 O   0  0  0  0  0  0  0  0  0  0  0  0
    3.4030   -3.1950    0.0000 O   0  0  0  0  0  0  0  0  0  0  0  0
   11.6177    4.4096    0.0000 O   0  0  0  0  0  0  0  0  0  0  0  0
   13.0598    3.5546    0.0000 O   0  0  0  0  0  0  0  0  0  0  0  0
    5.0597   -0.1422    0.0000 O   0  0  0  0  0  0  0  0  0  0  0  0
    2.5369   -1.6950    0.0000 O   0  0  0  0  0  0  0  0  0  0  0  0
    9.6047    0.3511    0.0000 N   0  0  3  0  0  0  0  0  0  0  0  0
    9.6163    1.3510    0.0000 C   0  0  1  0  0  0  0  0  0  0  0  0
    8.7286    1.8960    0.0000 C   0  0  0  0  0  0  0  0  0  0  0  0
    8.7047   -0.1732    0.0000 C   0  0  0  0  0  0  0  0  0  0  0  0
   10.4649   -0.1589    0.0000 C   0  0  0  0  0  0  0  0  0  0  0  0
   10.4880    1.8410    0.0000 C   0  0  0  0  0  0  0  0  0  0  0  0
    7.8046    0.3511    0.0000 C   0  0  0  0  0  0  0  0  0  0  0  0
    7.8166    1.3926    0.0000 C   0  0  0  0  0  0  0  0  0  0  0  0
   11.3367    0.3310    0.0000 C   0  0  0  0  0  0  0  0  0  0  0  0
   11.3482    1.3310    0.0000 C   0  0  0  0  0  0  0  0  0  0  0  0
    6.8671   -0.1950    0.0000 C   0  0  0  0  0  0  0  0  0  0  0  0
    6.0010   -1.6950    0.0000 C   0  0  2  0  0  0  0  0  0  0  0  0
    6.0010   -2.6950    0.0000 C   0  0  1  0  0  0  0  0  0  0  0  0
    5.1350   -3.1950    0.0000 C   0  0  2  0  0  0  0  0  0  0  0  0
    4.2690   -2.6950    0.0000 C   0  0  1  0  0  0  0  0  0  0  0  0
    4.2690   -1.6950    0.0000 C   0  0  1  0  0  0  0  0  0  0  0  0
   10.4840    2.8826    0.0000 C   0  0  0  0  0  0  0  0  0  0  0  0
    6.8920    1.9603    0.0000 C   0  0  0  0  0  0  0  0  0  0  0  0
   12.2640    1.8273    0.0000 C   0  0  0  0  0  0  0  0  0  0  0  0
    5.9295    0.3511    0.0000 C   0  0  0  0  0  0  0  0  0  0  0  0
   11.3881    3.3999    0.0000 C   0  0  0  0  0  0  0  0  0  0  0  0
   12.2841    2.8687    0.0000 C   0  0  0  0  0  0  0  0  0  0  0  0
    5.9421    1.4360    0.0000 C   0  0  0  0  0  0  0  0  0  0  0  0
    3.4030   -1.1950    0.0000 C   0  0  0  0  0  0  0  0  0  0  0  0
   12.6488    4.5050    0.0000 C   0  0  0  0  0  0  0  0  0  0  0  0
    4.1975    0.3644    0.0000 C   0  0  0  0  0  0  0  0  0  0  0  0
    9.6327    2.2008    0.0000 H   0  0  0  0  0  0  0  0  0  0  0  0
    9.1386    2.3610    0.0000 H   0  0  0  0  0  0  0  0  0  0  0  0
    8.3405    2.3795    0.0000 H   0  0  0  0  0  0  0  0  0  0  0  0
    8.3055   -0.6476    0.0000 H   0  0  0  0  0  0  0  0  0  0  0  0
    9.1038   -0.6476    0.0000 H   0  0  0  0  0  0  0  0  0  0  0  0
   10.0609   -0.6292    0.0000 H   0  0  0  0  0  0  0  0  0  0  0  0
   10.8579   -0.6384    0.0000 H   0  0  0  0  0  0  0  0  0  0  0  0
   11.5420   -0.2540    0.0000 H   0  0  0  0  0  0  0  0  0  0  0  0
   11.9484    0.4316    0.0000 H   0  0  0  0  0  0  0  0  0  0  0  0
    6.0010   -1.0750    0.0000 H   0  0  0  0  0  0  0  0  0  0  0  0
    6.0010   -3.3150    0.0000 H   0  0  0  0  0  0  0  0  0  0  0  0
    4.5981   -3.5050    0.0000 H   0  0  0  0  0  0  0  0  0  0  0  0
    4.2690   -3.3150    0.0000 H   0  0  0  0  0  0  0  0  0  0  0  0
    4.2690   -1.0750    0.0000 H   0  0  0  0  0  0  0  0  0  0  0  0
    9.9471    3.1926    0.0000 H   0  0  0  0  0  0  0  0  0  0  0  0
    6.9063    2.5801    0.0000 H   0  0  0  0  0  0  0  0  0  0  0  0
   12.7936    1.5049    0.0000 H   0  0  0  0  0  0  0  0  0  0  0  0
    5.4100    1.7542    0.0000 H   0  0  0  0  0  0  0  0  0  0  0  0
    3.8015   -0.7201    0.0000 H   0  0  0  0  0  0  0  0  0  0  0  0
    3.0044   -0.7201    0.0000 H   0  0  0  0  0  0  0  0  0  0  0  0
    6.8671   -3.8150    0.0000 H   0  0  0  0  0  0  0  0  0  0  0  0
    4.5981   -4.5050    0.0000 H   0  0  0  0  0  0  0  0  0  0  0  0
    3.4030   -3.8150    0.0000 H   0  0  0  0  0  0  0  0  0  0  0  0
   13.2405    4.6900    0.0000 H   0  0  0  0  0  0  0  0  0  0  0  0
   12.5271    5.1130    0.0000 H   0  0  0  0  0  0  0  0  0  0  0  0
    2.0000   -1.3850    0.0000 H   0  0  0  0  0  0  0  0  0  0  0  0
    4.5117    0.8990    0.0000 H   0  0  0  0  0  0  0  0  0  0  0  0
    3.6630    0.6786    0.0000 H   0  0  0  0  0  0  0  0  0  0  0  0
    3.8834   -0.1701    0.0000 H   0  0  0  0  0  0  0  0  0  0  0  0
  1 20  1  0  0  0  0
 21  1  1  1  0  0  0
  2 21  1  0  0  0  0
  2 25  1  0  0  0  0
 22  3  1  6  0  0  0
  3 56  1  0  0  0  0
 23  4  1  1  0  0  0
  4 57  1  0  0  0  0
 24  5  1  6  0  0  0
  5 58  1  0  0  0  0
  6 30  1  0  0  0  0
  6 34  1  0  0  0  0
  7 31  1  0  0  0  0
  7 34  1  0  0  0  0
  8 29  1  0  0  0  0
  8 35  1  0  0  0  0
  9 33  1  0  0  0  0
  9 61  1  0  0  0  0
 10 11  1  0  0  0  0
 10 13  1  0  0  0  0
 10 14  1  0  0  0  0
 11 12  1  0  0  0  0
 11 15  1  0  0  0  0
 11 36  1  6  0  0  0
 12 17  1  0  0  0  0
 12 37  1  0  0  0  0
 12 38  1  0  0  0  0
 13 16  1  0  0  0  0
 13 39  1  0  0  0  0
 13 40  1  0  0  0  0
 14 18  1  0  0  0  0
 14 41  1  0  0  0  0
 14 42  1  0  0  0  0
 15 19  1  0  0  0  0
 15 26  2  0  0  0  0
 16 17  2  0  0  0  0
 16 20  1  0  0  0  0
 17 27  1  0  0  0  0
 18 19  1  0  0  0  0
 18 43  1  0  0  0  0
 18 44  1  0  0  0  0
 19 28  2  0  0  0  0
 20 29  2  0  0  0  0
 21 22  1  0  0  0  0
 21 45  1  0  0  0  0
 22 23  1  0  0  0  0
 22 46  1  0  0  0  0
 23 24  1  0  0  0  0
 23 47  1  0  0  0  0
 24 25  1  0  0  0  0
 24 48  1  0  0  0  0
 25 33  1  1  0  0  0
 25 49  1  0  0  0  0
 26 30  1  0  0  0  0
 26 50  1  0  0  0  0
 27 32  2  0  0  0  0
 27 51  1  0  0  0  0
 28 31  1  0  0  0  0
 28 52  1  0  0  0  0
 29 32  1  0  0  0  0
 30 31  2  0  0  0  0
 32 53  1  0  0  0  0
 33 54  1  0  0  0  0
 33 55  1  0  0  0  0
 34 59  1  0  0  0  0
 34 60  1  0  0  0  0
 35 62  1  0  0  0  0
 35 63  1  0  0  0  0
 35 64  1  0  0  0  0
M  END
> <PUBCHEM_COMPOUND_CID>
71716758

> <PUBCHEM_COMPOUND_CANONICALIZED>
1

> <PUBCHEM_CACTVS_COMPLEXITY>
744

> <PUBCHEM_CACTVS_HBOND_ACCEPTOR>
10

> <PUBCHEM_CACTVS_HBOND_DONOR>
4

> <PUBCHEM_CACTVS_ROTATABLE_BOND>
4

> <PUBCHEM_CACTVS_SUBSKEYS>
AAADceB6PAAAAAAAAAAAAAAAAAAAASAAAAA8eJECAAAAAEixQAAAHgAACAAADDzxmAcyDoMABgCAAiBCAACCCAAgIAAIiAAOjIgdNiKEsRumeCrnwBGPqAfw8P8OoAABAAAYQABAAAIAADCAAAAAAAAAAA==

> <PUBCHEM_IUPAC_OPENEYE_NAME>
(2R,3S,4S,5R,6S)-2-(hydroxymethyl)-6-[[(1S)-17-methoxy-5,7-dioxa-13-azapentacyclo[11.8.0.02,10.04,8.015,20]henicosa-2,4(8),9,15(20),16,18-hexaen-16-yl]oxy]tetrahydropyran-3,4,5-triol

> <PUBCHEM_IUPAC_CAS_NAME>
(2R,3S,4S,5R,6S)-2-(hydroxymethyl)-6-[[(1S)-17-methoxy-5,7-dioxa-13-azapentacyclo[11.8.0.02,10.04,8.015,20]heneicosa-2,4(8),9,15(20),16,18-hexaen-16-yl]oxy]oxane-3,4,5-triol

> <PUBCHEM_IUPAC_NAME_MARKUP>
(2<I>R</I>,3<I>S</I>,4<I>S</I>,5<I>R</I>,6<I>S</I>)-2-(hydroxymethyl)-6-[[(1<I>S</I>)-17-methoxy-5,7-dioxa-13-azapentacyclo[11.8.0.0<SUP>2,10</SUP>.0<SUP>4,8</SUP>.0<SUP>15,20</SUP>]henicosa-2,4(8),9,15(20),16,18-hexaen-16-yl]oxy]oxane-3,4,5-triol

> <PUBCHEM_IUPAC_NAME>
(2R,3S,4S,5R,6S)-2-(hydroxymethyl)-6-[[(1S)-17-methoxy-5,7-dioxa-13-azapentacyclo[11.8.0.02,10.04,8.015,20]henicosa-2,4(8),9,15(20),16,18-hexaen-16-yl]oxy]oxane-3,4,5-triol

> <PUBCHEM_IUPAC_SYSTEMATIC_NAME>
(2R,3S,4S,5R,6S)-2-(hydroxymethyl)-6-[[(1S)-17-methoxy-5,7-dioxa-13-azapentacyclo[11.8.0.02,10.04,8.015,20]henicosa-2,4(8),9,15(20),16,18-hexaen-16-yl]oxy]oxane-3,4,5-triol

> <PUBCHEM_IUPAC_TRADITIONAL_NAME>
(2S,3R,4S,5S,6R)-2-[[(1S)-17-methoxy-5,7-dioxa-13-azapentacyclo[11.8.0.02,10.04,8.015,20]heneicosa-2,4(8),9,15(20),16,18-hexaen-16-yl]oxy]-6-methylol-tetrahydropyran-3,4,5-triol

> <PUBCHEM_IUPAC_INCHI>
InChI=1S/C25H29NO9/c1-31-17-3-2-12-6-16-14-8-19-18(32-11-33-19)7-13(14)4-5-26(16)9-15(12)24(17)35-25-23(30)22(29)21(28)20(10-27)34-25/h2-3,7-8,16,20-23,25,27-30H,4-6,9-11H2,1H3/t16-,20+,21+,22-,23+,25-/m0/s1

> <PUBCHEM_IUPAC_INCHIKEY>
OCHYIOQLUNYHOD-IMBIOGTGSA-N

> <PUBCHEM_XLOGP3_AA>
1

> <PUBCHEM_EXACT_MASS>
487.18423150

> <PUBCHEM_MOLECULAR_FORMULA>
C25H29NO9

> <PUBCHEM_MOLECULAR_WEIGHT>
487.5

> <PUBCHEM_OPENEYE_CAN_SMILES>
COC1=C(C2=C(CC3C4=CC5=C(C=C4CCN3C2)OCO5)C=C1)OC6C(C(C(C(O6)CO)O)O)O

> <PUBCHEM_OPENEYE_ISO_SMILES>
COC1=C(C2=C(C[C@H]3C4=CC5=C(C=C4CCN3C2)OCO5)C=C1)O[C@H]6[C@@H]([C@H]([C@@H]([C@H](O6)CO)O)O)O

> <PUBCHEM_CACTVS_TPSA>
130

> <PUBCHEM_MONOISOTOPIC_WEIGHT>
487.18423150

> <PUBCHEM_TOTAL_CHARGE>
0

> <PUBCHEM_HEAVY_ATOM_COUNT>
35

> <PUBCHEM_ATOM_DEF_STEREO_COUNT>
6

> <PUBCHEM_ATOM_UDEF_STEREO_COUNT>
0

> <PUBCHEM_BOND_DEF_STEREO_COUNT>
0

> <PUBCHEM_BOND_UDEF_STEREO_COUNT>
0

> <PUBCHEM_ISOTOPIC_ATOM_COUNT>
0

> <PUBCHEM_COMPONENT_COUNT>
1

> <PUBCHEM_CACTVS_TAUTO_COUNT>
-1

> <PUBCHEM_COORDINATE_TYPE>
1
5
255

> <PUBCHEM_BONDANNOTATIONS>
21  1  5
11  36  6
15  19  8
15  26  8
16  17  8
16  20  8
17  27  8
19  28  8
20  29  8
25  33  5
26  30  8
27  32  8
28  31  8
29  32  8
22  3  6
30  31  8
23  4  5
24  5  6

$$$$
