164065702
  -OEChem-09292322452D

 53 55  0     1  0  0  0  0  0999 V2000
    2.0000   -4.4610    0.0000 Cl  0  0  0  0  0  0  0  0  0  0  0  0
    9.0546    2.5088    0.0000 S   0  0  0  0  0  0  0  0  0  0  0  0
    5.5443   -4.2658    0.0000 O   0  0  0  0  0  0  0  0  0  0  0  0
    8.8484    3.4872    0.0000 O   0  0  0  0  0  0  0  0  0  0  0  0
    9.2608    1.5302    0.0000 O   0  0  0  0  0  0  0  0  0  0  0  0
   11.3223    3.8717    0.0000 O   0  0  0  0  0  0  0  0  0  0  0  0
    6.4763    0.1953    0.0000 N   0  0  0  0  0  0  0  0  0  0  0  0
    8.0761    2.3025    0.0000 N   0  0  3  0  0  0  0  0  0  0  0  0
    6.1279   -3.4610    0.0000 N   0  0  0  0  0  0  0  0  0  0  0  0
    5.8550   -1.7058    0.0000 C   0  0  0  0  0  0  0  0  0  0  0  0
    5.1871   -0.9615    0.0000 C   0  0  0  0  0  0  0  0  0  0  0  0
    6.8335   -1.4996    0.0000 C   0  0  0  0  0  0  0  0  0  0  0  0
    5.4978   -0.0110    0.0000 C   0  0  0  0  0  0  0  0  0  0  0  0
    7.1441   -0.5490    0.0000 C   0  0  0  0  0  0  0  0  0  0  0  0
    6.7870    1.1458    0.0000 C   0  0  0  0  0  0  0  0  0  0  0  0
    5.5443   -2.6563    0.0000 C   0  0  0  0  0  0  0  0  0  0  0  0
    7.7654    1.3520    0.0000 C   0  0  0  0  0  0  0  0  0  0  0  0
    4.5981   -2.9610    0.0000 C   0  0  0  0  0  0  0  0  0  0  0  0
    7.4083    3.0468    0.0000 C   0  0  0  0  0  0  0  0  0  0  0  0
    4.5981   -3.9610    0.0000 C   0  0  0  0  0  0  0  0  0  0  0  0
   10.0331    2.7150    0.0000 C   0  0  0  0  0  0  0  0  0  0  0  0
    3.7320   -2.4610    0.0000 C   0  0  0  0  0  0  0  0  0  0  0  0
    6.4298    2.8406    0.0000 C   0  0  0  0  0  0  0  0  0  0  0  0
    3.7320   -4.4610    0.0000 C   0  0  0  0  0  0  0  0  0  0  0  0
   10.3438    3.6655    0.0000 C   0  0  0  0  0  0  0  0  0  0  0  0
    2.8660   -2.9610    0.0000 C   0  0  0  0  0  0  0  0  0  0  0  0
    2.8660   -3.9610    0.0000 C   0  0  0  0  0  0  0  0  0  0  0  0
    6.2690   -2.1672    0.0000 H   0  0  0  0  0  0  0  0  0  0  0  0
    4.6402   -0.6695    0.0000 H   0  0  0  0  0  0  0  0  0  0  0  0
    4.8046   -1.4494    0.0000 H   0  0  0  0  0  0  0  0  0  0  0  0
    6.8540   -2.1192    0.0000 H   0  0  0  0  0  0  0  0  0  0  0  0
    7.4473   -1.5869    0.0000 H   0  0  0  0  0  0  0  0  0  0  0  0
    5.4772    0.6087    0.0000 H   0  0  0  0  0  0  0  0  0  0  0  0
    4.8840    0.0764    0.0000 H   0  0  0  0  0  0  0  0  0  0  0  0
    7.6910   -0.8411    0.0000 H   0  0  0  0  0  0  0  0  0  0  0  0
    7.5267   -0.0611    0.0000 H   0  0  0  0  0  0  0  0  0  0  0  0
    6.7664    1.7654    0.0000 H   0  0  0  0  0  0  0  0  0  0  0  0
    6.1731    1.2331    0.0000 H   0  0  0  0  0  0  0  0  0  0  0  0
    7.7860    0.7323    0.0000 H   0  0  0  0  0  0  0  0  0  0  0  0
    8.3793    1.2647    0.0000 H   0  0  0  0  0  0  0  0  0  0  0  0
    7.9346    3.3745    0.0000 H   0  0  0  0  0  0  0  0  0  0  0  0
    7.1770    3.6221    0.0000 H   0  0  0  0  0  0  0  0  0  0  0  0
   10.0537    2.0953    0.0000 H   0  0  0  0  0  0  0  0  0  0  0  0
   10.6469    2.6276    0.0000 H   0  0  0  0  0  0  0  0  0  0  0  0
    3.7320   -1.8410    0.0000 H   0  0  0  0  0  0  0  0  0  0  0  0
    6.3019    3.4473    0.0000 H   0  0  0  0  0  0  0  0  0  0  0  0
    5.8231    2.7128    0.0000 H   0  0  0  0  0  0  0  0  0  0  0  0
    6.5576    2.2339    0.0000 H   0  0  0  0  0  0  0  0  0  0  0  0
    3.7320   -5.0810    0.0000 H   0  0  0  0  0  0  0  0  0  0  0  0
   10.3232    4.2851    0.0000 H   0  0  0  0  0  0  0  0  0  0  0  0
    9.7300    3.7528    0.0000 H   0  0  0  0  0  0  0  0  0  0  0  0
    2.3291   -2.6510    0.0000 H   0  0  0  0  0  0  0  0  0  0  0  0
   11.5149    4.4610    0.0000 H   0  0  0  0  0  0  0  0  0  0  0  0
  1 27  1  0  0  0  0
  2  4  2  0  0  0  0
  2  5  2  0  0  0  0
  2  8  1  0  0  0  0
  2 21  1  0  0  0  0
  3  9  1  0  0  0  0
  3 20  1  0  0  0  0
  6 25  1  0  0  0  0
  6 53  1  0  0  0  0
  7 13  1  0  0  0  0
  7 14  1  0  0  0  0
  7 15  1  0  0  0  0
  8 17  1  0  0  0  0
  8 19  1  0  0  0  0
  9 16  2  0  0  0  0
 10 11  1  0  0  0  0
 10 12  1  0  0  0  0
 10 16  1  0  0  0  0
 10 28  1  0  0  0  0
 11 13  1  0  0  0  0
 11 29  1  0  0  0  0
 11 30  1  0  0  0  0
 12 14  1  0  0  0  0
 12 31  1  0  0  0  0
 12 32  1  0  0  0  0
 13 33  1  0  0  0  0
 13 34  1  0  0  0  0
 14 35  1  0  0  0  0
 14 36  1  0  0  0  0
 15 17  1  0  0  0  0
 15 37  1  0  0  0  0
 15 38  1  0  0  0  0
 16 18  1  0  0  0  0
 17 39  1  0  0  0  0
 17 40  1  0  0  0  0
 18 20  2  0  0  0  0
 18 22  1  0  0  0  0
 19 23  1  0  0  0  0
 19 41  1  0  0  0  0
 19 42  1  0  0  0  0
 20 24  1  0  0  0  0
 21 25  1  0  0  0  0
 21 43  1  0  0  0  0
 21 44  1  0  0  0  0
 22 26  2  0  0  0  0
 22 45  1  0  0  0  0
 23 46  1  0  0  0  0
 23 47  1  0  0  0  0
 23 48  1  0  0  0  0
 24 27  2  0  0  0  0
 24 49  1  0  0  0  0
 25 50  1  0  0  0  0
 25 51  1  0  0  0  0
 26 27  1  0  0  0  0
 26 52  1  0  0  0  0
M  END
> <PUBCHEM_COMPOUND_CID>
164065702

> <PUBCHEM_COMPOUND_CANONICALIZED>
1

> <PUBCHEM_CACTVS_COMPLEXITY>
565

> <PUBCHEM_CACTVS_HBOND_ACCEPTOR>
7

> <PUBCHEM_CACTVS_HBOND_DONOR>
1

> <PUBCHEM_CACTVS_ROTATABLE_BOND>
8

> <PUBCHEM_CACTVS_SUBSKEYS>
AAADceB7OABEAAAAAAAAAAAAAAAAAWAAAAA8QAAAAAAAAFgB8AAAHgYESAAADQ7l3iayhtMQAgKpA6RyQnDCAAAkJQAomCE+TtoIdrqBl5OUMYBmwBmIzceYyOCOBAAAAQAIAAAIAAACABAAAAAAAAAAAA==

> <PUBCHEM_IUPAC_OPENEYE_NAME>
N-[2-[4-(6-chloro-1,2-benzoxazol-3-yl)-1-piperidyl]ethyl]-N-ethyl-2-hydroxy-ethanesulfonamide

> <PUBCHEM_IUPAC_CAS_NAME>
N-[2-[4-(6-chloro-1,2-benzoxazol-3-yl)-1-piperidinyl]ethyl]-N-ethyl-2-hydroxyethanesulfonamide

> <PUBCHEM_IUPAC_NAME_MARKUP>
<I>N</I>-[2-[4-(6-chloro-1,2-benzoxazol-3-yl)piperidin-1-yl]ethyl]-<I>N</I>-ethyl-2-hydroxyethanesulfonamide

> <PUBCHEM_IUPAC_NAME>
N-[2-[4-(6-chloro-1,2-benzoxazol-3-yl)piperidin-1-yl]ethyl]-N-ethyl-2-hydroxyethanesulfonamide

> <PUBCHEM_IUPAC_SYSTEMATIC_NAME>
N-[2-[4-(6-chloranyl-1,2-benzoxazol-3-yl)piperidin-1-yl]ethyl]-N-ethyl-2-oxidanyl-ethanesulfonamide

> <PUBCHEM_IUPAC_TRADITIONAL_NAME>
N-[2-[4-(6-chloroindoxazen-3-yl)piperidino]ethyl]-N-ethyl-2-hydroxy-ethanesulfonamide

> <PUBCHEM_IUPAC_INCHI>
InChI=1S/C18H26ClN3O4S/c1-2-22(27(24,25)12-11-23)10-9-21-7-5-14(6-8-21)18-16-4-3-15(19)13-17(16)26-20-18/h3-4,13-14,23H,2,5-12H2,1H3

> <PUBCHEM_IUPAC_INCHIKEY>
WKTMKMQREUNTCP-UHFFFAOYSA-N

> <PUBCHEM_XLOGP3_AA>
1.9

> <PUBCHEM_EXACT_MASS>
415.1332552

> <PUBCHEM_MOLECULAR_FORMULA>
C18H26ClN3O4S

> <PUBCHEM_MOLECULAR_WEIGHT>
415.9

> <PUBCHEM_OPENEYE_CAN_SMILES>
CCN(CCN1CCC(CC1)C2=NOC3=C2C=CC(=C3)Cl)S(=O)(=O)CCO

> <PUBCHEM_OPENEYE_ISO_SMILES>
CCN(CCN1CCC(CC1)C2=NOC3=C2C=CC(=C3)Cl)S(=O)(=O)CCO

> <PUBCHEM_CACTVS_TPSA>
95.3

> <PUBCHEM_MONOISOTOPIC_WEIGHT>
415.1332552

> <PUBCHEM_TOTAL_CHARGE>
0

> <PUBCHEM_HEAVY_ATOM_COUNT>
27

> <PUBCHEM_ATOM_DEF_STEREO_COUNT>
0

> <PUBCHEM_ATOM_UDEF_STEREO_COUNT>
0

> <PUBCHEM_BOND_DEF_STEREO_COUNT>
0

> <PUBCHEM_BOND_UDEF_STEREO_COUNT>
0

> <PUBCHEM_ISOTOPIC_ATOM_COUNT>
0

> <PUBCHEM_COMPONENT_COUNT>
1

> <PUBCHEM_CACTVS_TAUTO_COUNT>
-1

> <PUBCHEM_COORDINATE_TYPE>
1
5
255

> <PUBCHEM_BONDANNOTATIONS>
16  18  8
18  20  8
18  22  8
20  24  8
22  26  8
24  27  8
26  27  8
3  20  8
3  9  8
9  16  8

$$$$
