44276551
  -OEChem-09292322222D

 45 48  0     1  0  0  0  0  0999 V2000
    4.5339   -2.6463    0.0000 O   0  0  0  0  0  0  0  0  0  0  0  0
    6.3372   -3.7061    0.0000 O   0  0  0  0  0  0  0  0  0  0  0  0
    7.2564    1.9906    0.0000 N   0  0  0  0  0  0  0  0  0  0  0  0
    4.6304    2.5253    0.0000 N   0  0  0  0  0  0  0  0  0  0  0  0
    7.2564    0.9907    0.0000 C   0  0  1  0  0  0  0  0  0  0  0  0
    6.3904    0.4907    0.0000 C   0  0  1  0  0  0  0  0  0  0  0  0
    8.1664    0.4838    0.0000 C   0  0  0  0  0  0  0  0  0  0  0  0
    6.3743   -0.5509    0.0000 C   0  0  0  0  0  0  0  0  0  0  0  0
    5.5243    0.9907    0.0000 C   0  0  0  0  0  0  0  0  0  0  0  0
    8.1744   -0.5578    0.0000 C   0  0  0  0  0  0  0  0  0  0  0  0
    7.2723   -1.0786    0.0000 C   0  0  0  0  0  0  0  0  0  0  0  0
    6.3904    2.4906    0.0000 C   0  0  0  0  0  0  0  0  0  0  0  0
    5.5243    1.9906    0.0000 C   0  0  0  0  0  0  0  0  0  0  0  0
    5.4224   -1.0715    0.0000 C   0  0  0  0  0  0  0  0  0  0  0  0
    4.6304    0.4560    0.0000 C   0  0  0  0  0  0  0  0  0  0  0  0
    7.2807   -2.1636    0.0000 C   0  0  0  0  0  0  0  0  0  0  0  0
    5.4056   -2.1563    0.0000 C   0  0  0  0  0  0  0  0  0  0  0  0
    3.7243    2.0115    0.0000 C   0  0  0  0  0  0  0  0  0  0  0  0
    3.7243    0.9698    0.0000 C   0  0  0  0  0  0  0  0  0  0  0  0
    6.3411   -2.7061    0.0000 C   0  0  0  0  0  0  0  0  0  0  0  0
    2.8602    2.5148    0.0000 C   0  0  0  0  0  0  0  0  0  0  0  0
    2.8641    3.5148    0.0000 C   0  0  0  0  0  0  0  0  0  0  0  0
    2.0000    4.0181    0.0000 C   0  0  0  0  0  0  0  0  0  0  0  0
    7.9892    1.4213    0.0000 H   0  0  0  0  0  0  0  0  0  0  0  0
    5.6510    0.0713    0.0000 H   0  0  0  0  0  0  0  0  0  0  0  0
    8.7780    0.3824    0.0000 H   0  0  0  0  0  0  0  0  0  0  0  0
    8.3709    1.0691    0.0000 H   0  0  0  0  0  0  0  0  0  0  0  0
    8.3880   -1.1399    0.0000 H   0  0  0  0  0  0  0  0  0  0  0  0
    8.7844   -0.4470    0.0000 H   0  0  0  0  0  0  0  0  0  0  0  0
    7.7933    2.3006    0.0000 H   0  0  0  0  0  0  0  0  0  0  0  0
    6.7889    2.9656    0.0000 H   0  0  0  0  0  0  0  0  0  0  0  0
    5.9918    2.9656    0.0000 H   0  0  0  0  0  0  0  0  0  0  0  0
    4.8915   -0.7512    0.0000 H   0  0  0  0  0  0  0  0  0  0  0  0
    4.6376   -0.1640    0.0000 H   0  0  0  0  0  0  0  0  0  0  0  0
    7.8188   -2.4715    0.0000 H   0  0  0  0  0  0  0  0  0  0  0  0
    3.1886    0.6578    0.0000 H   0  0  0  0  0  0  0  0  0  0  0  0
    2.2501    2.6248    0.0000 H   0  0  0  0  0  0  0  0  0  0  0  0
    2.6459    1.9330    0.0000 H   0  0  0  0  0  0  0  0  0  0  0  0
    3.4742    3.4048    0.0000 H   0  0  0  0  0  0  0  0  0  0  0  0
    3.0784    4.0966    0.0000 H   0  0  0  0  0  0  0  0  0  0  0  0
    4.5267   -3.2663    0.0000 H   0  0  0  0  0  0  0  0  0  0  0  0
    6.8730   -4.0181    0.0000 H   0  0  0  0  0  0  0  0  0  0  0  0
    2.3121    4.5539    0.0000 H   0  0  0  0  0  0  0  0  0  0  0  0
    1.4643    4.3302    0.0000 H   0  0  0  0  0  0  0  0  0  0  0  0
    1.6879    3.4824    0.0000 H   0  0  0  0  0  0  0  0  0  0  0  0
  1 17  1  0  0  0  0
  1 41  1  0  0  0  0
  2 20  1  0  0  0  0
  2 42  1  0  0  0  0
  3  5  1  0  0  0  0
  3 12  1  0  0  0  0
  3 30  1  0  0  0  0
  4 13  1  0  0  0  0
  4 18  2  0  0  0  0
  5  6  1  0  0  0  0
  5  7  1  0  0  0  0
  5 24  1  1  0  0  0
  6  8  1  0  0  0  0
  6  9  1  0  0  0  0
  6 25  1  6  0  0  0
  7 10  1  0  0  0  0
  7 26  1  0  0  0  0
  7 27  1  0  0  0  0
  8 11  1  0  0  0  0
  8 14  2  0  0  0  0
  9 13  2  0  0  0  0
  9 15  1  0  0  0  0
 10 11  1  0  0  0  0
 10 28  1  0  0  0  0
 10 29  1  0  0  0  0
 11 16  2  0  0  0  0
 12 13  1  0  0  0  0
 12 31  1  0  0  0  0
 12 32  1  0  0  0  0
 14 17  1  0  0  0  0
 14 33  1  0  0  0  0
 15 19  2  0  0  0  0
 15 34  1  0  0  0  0
 16 20  1  0  0  0  0
 16 35  1  0  0  0  0
 17 20  2  0  0  0  0
 18 19  1  0  0  0  0
 18 21  1  0  0  0  0
 19 36  1  0  0  0  0
 21 22  1  0  0  0  0
 21 37  1  0  0  0  0
 21 38  1  0  0  0  0
 22 23  1  0  0  0  0
 22 39  1  0  0  0  0
 22 40  1  0  0  0  0
 23 43  1  0  0  0  0
 23 44  1  0  0  0  0
 23 45  1  0  0  0  0
M  END
> <PUBCHEM_COMPOUND_CID>
44276551

> <PUBCHEM_COMPOUND_CANONICALIZED>
1

> <PUBCHEM_CACTVS_COMPLEXITY>
418

> <PUBCHEM_CACTVS_HBOND_ACCEPTOR>
4

> <PUBCHEM_CACTVS_HBOND_DONOR>
3

> <PUBCHEM_CACTVS_ROTATABLE_BOND>
2

> <PUBCHEM_CACTVS_SUBSKEYS>
AAADceB7MAAAAAAAAAAAAAAAAAAAAAAAAAA8eIEAAAAAAADxwAAAHgAQCAAADSzBngQyhpLIEgCgAyRiRACCgCAhIiAImKA+7JgJZuLCkZOUcAlk0BHJ2AeQ0PMOoAABAAAQQABQAAaAACSAAAAAAAAAAA==

> <PUBCHEM_IUPAC_OPENEYE_NAME>
(6aR,12bS)-3-propyl-5,6,6a,7,8,12b-hexahydronaphtho[1,2-f][1,7]naphthyridine-10,11-diol

> <PUBCHEM_IUPAC_CAS_NAME>
(6aR,12bS)-3-propyl-5,6,6a,7,8,12b-hexahydronaphtho[1,2-f][1,7]naphthyridine-10,11-diol

> <PUBCHEM_IUPAC_NAME_MARKUP>
(6<I>a</I><I>R</I>,12<I>b</I><I>S</I>)-3-propyl-5,6,6<I>a</I>,7,8,12<I>b</I>-hexahydronaphtho[1,2-f][1,7]naphthyridine-10,11-diol

> <PUBCHEM_IUPAC_NAME>
(6aR,12bS)-3-propyl-5,6,6a,7,8,12b-hexahydronaphtho[1,2-f][1,7]naphthyridine-10,11-diol

> <PUBCHEM_IUPAC_SYSTEMATIC_NAME>
(6aR,12bS)-3-propyl-5,6,6a,7,8,12b-hexahydronaphtho[1,2-f][1,7]naphthyridine-10,11-diol

> <PUBCHEM_IUPAC_TRADITIONAL_NAME>
(6aR,12bS)-3-propyl-5,6,6a,7,8,12b-hexahydronaphtho[1,2-f][1,7]naphthyridine-10,11-diol

> <PUBCHEM_IUPAC_INCHI>
InChI=1S/C19H22N2O2/c1-2-3-12-5-6-13-16(21-12)10-20-15-7-4-11-8-17(22)18(23)9-14(11)19(13)15/h5-6,8-9,15,19-20,22-23H,2-4,7,10H2,1H3/t15-,19-/m1/s1

> <PUBCHEM_IUPAC_INCHIKEY>
KBXQAHKIUBTDCL-DNVCBOLYSA-N

> <PUBCHEM_XLOGP3_AA>
2.7

> <PUBCHEM_EXACT_MASS>
310.168127949

> <PUBCHEM_MOLECULAR_FORMULA>
C19H22N2O2

> <PUBCHEM_MOLECULAR_WEIGHT>
310.4

> <PUBCHEM_OPENEYE_CAN_SMILES>
CCCC1=NC2=C(C=C1)C3C(CCC4=CC(=C(C=C34)O)O)NC2

> <PUBCHEM_OPENEYE_ISO_SMILES>
CCCC1=NC2=C(C=C1)[C@H]3[C@@H](CCC4=CC(=C(C=C34)O)O)NC2

> <PUBCHEM_CACTVS_TPSA>
65.4

> <PUBCHEM_MONOISOTOPIC_WEIGHT>
310.168127949

> <PUBCHEM_TOTAL_CHARGE>
0

> <PUBCHEM_HEAVY_ATOM_COUNT>
23

> <PUBCHEM_ATOM_DEF_STEREO_COUNT>
2

> <PUBCHEM_ATOM_UDEF_STEREO_COUNT>
0

> <PUBCHEM_BOND_DEF_STEREO_COUNT>
0

> <PUBCHEM_BOND_UDEF_STEREO_COUNT>
0

> <PUBCHEM_ISOTOPIC_ATOM_COUNT>
0

> <PUBCHEM_COMPONENT_COUNT>
1

> <PUBCHEM_CACTVS_TAUTO_COUNT>
-1

> <PUBCHEM_COORDINATE_TYPE>
1
5
255

> <PUBCHEM_BONDANNOTATIONS>
11  16  8
14  17  8
15  19  8
16  20  8
17  20  8
18  19  8
4  13  8
4  18  8
5  24  5
6  25  6
8  11  8
8  14  8
9  13  8
9  15  8

$$$$
