9837094
  -OEChem-09292322142D

 30 32  0     1  0  0  0  0  0999 V2000
    4.6660    1.0281    0.0000 N   0  0  0  0  0  0  0  0  0  0  0  0
    6.3981   -0.9719    0.0000 N   0  0  0  0  0  0  0  0  0  0  0  0
    3.3073    1.9719    0.0000 N   0  0  0  0  0  0  0  0  0  0  0  0
    5.5321   -0.4719    0.0000 C   0  0  1  0  0  0  0  0  0  0  0  0
    5.5321    0.5281    0.0000 C   0  0  0  0  0  0  0  0  0  0  0  0
    4.6660   -0.9719    0.0000 C   0  0  0  0  0  0  0  0  0  0  0  0
    3.8000   -0.4719    0.0000 C   0  0  0  0  0  0  0  0  0  0  0  0
    3.8000    0.5281    0.0000 C   0  0  0  0  0  0  0  0  0  0  0  0
    2.9061    1.0627    0.0000 C   0  0  0  0  0  0  0  0  0  0  0  0
    4.3009    1.9524    0.0000 C   0  0  0  0  0  0  0  0  0  0  0  0
    2.9061   -1.0066    0.0000 C   0  0  0  0  0  0  0  0  0  0  0  0
    7.2641   -0.4719    0.0000 C   0  0  0  0  0  0  0  0  0  0  0  0
    6.3981   -1.9719    0.0000 C   0  0  0  0  0  0  0  0  0  0  0  0
    2.0000    0.5489    0.0000 C   0  0  0  0  0  0  0  0  0  0  0  0
    2.0000   -0.4928    0.0000 C   0  0  0  0  0  0  0  0  0  0  0  0
    5.5321   -1.0919    0.0000 H   0  0  0  0  0  0  0  0  0  0  0  0
    6.1426    0.4204    0.0000 H   0  0  0  0  0  0  0  0  0  0  0  0
    5.7441    1.1107    0.0000 H   0  0  0  0  0  0  0  0  0  0  0  0
    4.2675   -1.4469    0.0000 H   0  0  0  0  0  0  0  0  0  0  0  0
    5.0646   -1.4469    0.0000 H   0  0  0  0  0  0  0  0  0  0  0  0
    4.6546    2.4616    0.0000 H   0  0  0  0  0  0  0  0  0  0  0  0
    2.9132   -1.6266    0.0000 H   0  0  0  0  0  0  0  0  0  0  0  0
    7.5741   -1.0089    0.0000 H   0  0  0  0  0  0  0  0  0  0  0  0
    7.8010   -0.1619    0.0000 H   0  0  0  0  0  0  0  0  0  0  0  0
    6.9541    0.0650    0.0000 H   0  0  0  0  0  0  0  0  0  0  0  0
    5.7781   -1.9719    0.0000 H   0  0  0  0  0  0  0  0  0  0  0  0
    6.3981   -2.5919    0.0000 H   0  0  0  0  0  0  0  0  0  0  0  0
    7.0181   -1.9719    0.0000 H   0  0  0  0  0  0  0  0  0  0  0  0
    1.4643    0.8609    0.0000 H   0  0  0  0  0  0  0  0  0  0  0  0
    1.4643   -0.8048    0.0000 H   0  0  0  0  0  0  0  0  0  0  0  0
  1  5  1  0  0  0  0
  1  8  1  0  0  0  0
  1 10  1  0  0  0  0
  4  2  1  6  0  0  0
  2 12  1  0  0  0  0
  2 13  1  0  0  0  0
  3  9  1  0  0  0  0
  3 10  2  0  0  0  0
  4  5  1  0  0  0  0
  4  6  1  0  0  0  0
  4 16  1  0  0  0  0
  5 17  1  0  0  0  0
  5 18  1  0  0  0  0
  6  7  1  0  0  0  0
  6 19  1  0  0  0  0
  6 20  1  0  0  0  0
  7  8  2  0  0  0  0
  7 11  1  0  0  0  0
  8  9  1  0  0  0  0
  9 14  2  0  0  0  0
 10 21  1  0  0  0  0
 11 15  2  0  0  0  0
 11 22  1  0  0  0  0
 12 23  1  0  0  0  0
 12 24  1  0  0  0  0
 12 25  1  0  0  0  0
 13 26  1  0  0  0  0
 13 27  1  0  0  0  0
 13 28  1  0  0  0  0
 14 15  1  0  0  0  0
 14 29  1  0  0  0  0
 15 30  1  0  0  0  0
M  END
> <PUBCHEM_COMPOUND_CID>
9837094

> <PUBCHEM_COMPOUND_CANONICALIZED>
1

> <PUBCHEM_CACTVS_COMPLEXITY>
241

> <PUBCHEM_CACTVS_HBOND_ACCEPTOR>
2

> <PUBCHEM_CACTVS_HBOND_DONOR>
0

> <PUBCHEM_CACTVS_ROTATABLE_BOND>
1

> <PUBCHEM_CACTVS_SUBSKEYS>
AAADccBzAAAAAAAAAAAAAAAAAAAAAWAAAAA8QAAAAAAAAFix8AAAHAAAAAAADCjBHgQ30LcMEACgAyRjZACCgC0xEqAJ2CA4dJiIaKLAmZGUIAhogALIyCcQgIAOAAAAQAACACAAAACAAAQAQAAAAAAAAA==

> <PUBCHEM_IUPAC_OPENEYE_NAME>
(10R)-N,N-dimethyl-1,3-diazatricyclo[6.3.1.04,12]dodeca-2,4,6,8(12)-tetraen-10-amine

> <PUBCHEM_IUPAC_CAS_NAME>
(10R)-N,N-dimethyl-1,3-diazatricyclo[6.3.1.04,12]dodeca-2,4,6,8(12)-tetraen-10-amine

> <PUBCHEM_IUPAC_NAME_MARKUP>
(10<I>R</I>)-<I>N</I>,<I>N</I>-dimethyl-1,3-diazatricyclo[6.3.1.0<SUP>4,12</SUP>]dodeca-2,4,6,8(12)-tetraen-10-amine

> <PUBCHEM_IUPAC_NAME>
(10R)-N,N-dimethyl-1,3-diazatricyclo[6.3.1.04,12]dodeca-2,4,6,8(12)-tetraen-10-amine

> <PUBCHEM_IUPAC_SYSTEMATIC_NAME>
(10R)-N,N-dimethyl-1,3-diazatricyclo[6.3.1.04,12]dodeca-2,4,6,8(12)-tetraen-10-amine

> <PUBCHEM_IUPAC_TRADITIONAL_NAME>
[(10R)-1,3-diazatricyclo[6.3.1.04,12]dodeca-2,4,6,8(12)-tetraen-10-yl]-dimethyl-amine

> <PUBCHEM_IUPAC_INCHI>
InChI=1S/C12H15N3/c1-14(2)10-6-9-4-3-5-11-12(9)15(7-10)8-13-11/h3-5,8,10H,6-7H2,1-2H3/t10-/m1/s1

> <PUBCHEM_IUPAC_INCHIKEY>
SHTKKIRPSYJFRO-SNVBAGLBSA-N

> <PUBCHEM_XLOGP3_AA>
1.5

> <PUBCHEM_EXACT_MASS>
201.126597491

> <PUBCHEM_MOLECULAR_FORMULA>
C12H15N3

> <PUBCHEM_MOLECULAR_WEIGHT>
201.27

> <PUBCHEM_OPENEYE_CAN_SMILES>
CN(C)C1CC2=C3C(=CC=C2)N=CN3C1

> <PUBCHEM_OPENEYE_ISO_SMILES>
CN(C)[C@@H]1CC2=C3C(=CC=C2)N=CN3C1

> <PUBCHEM_CACTVS_TPSA>
21.1

> <PUBCHEM_MONOISOTOPIC_WEIGHT>
201.126597491

> <PUBCHEM_TOTAL_CHARGE>
0

> <PUBCHEM_HEAVY_ATOM_COUNT>
15

> <PUBCHEM_ATOM_DEF_STEREO_COUNT>
1

> <PUBCHEM_ATOM_UDEF_STEREO_COUNT>
0

> <PUBCHEM_BOND_DEF_STEREO_COUNT>
0

> <PUBCHEM_BOND_UDEF_STEREO_COUNT>
0

> <PUBCHEM_ISOTOPIC_ATOM_COUNT>
0

> <PUBCHEM_COMPONENT_COUNT>
1

> <PUBCHEM_CACTVS_TAUTO_COUNT>
-1

> <PUBCHEM_COORDINATE_TYPE>
1
5
255

> <PUBCHEM_BONDANNOTATIONS>
1  10  8
1  8  8
11  15  8
14  15  8
4  2  6
3  10  8
3  9  8
7  11  8
7  8  8
8  9  8
9  14  8

$$$$
