24901283
  -OEChem-09292322042D

 56 58  0     1  0  0  0  0  0999 V2000
   13.3385   -1.5403    0.0000 S   0  0  0  0  0  0  0  0  0  0  0  0
   12.3923    0.1550    0.0000 O   0  0  0  0  0  0  0  0  0  0  0  0
   11.5263   -4.3450    0.0000 O   0  0  0  0  0  0  0  0  0  0  0  0
   14.9221   -2.3450    0.0000 O   0  0  0  0  0  0  0  0  0  0  0  0
    2.8660    2.6550    0.0000 O   0  0  0  0  0  0  0  0  0  0  0  0
   10.6603    1.1550    0.0000 N   0  0  0  0  0  0  0  0  0  0  0  0
   13.3385   -3.1497    0.0000 N   0  0  0  0  0  0  0  0  0  0  0  0
    5.4641    3.1550    0.0000 N   0  0  0  0  0  0  0  0  0  0  0  0
   11.5263   -0.3450    0.0000 C   0  0  1  0  0  0  0  0  0  0  0  0
   10.6603    0.1550    0.0000 C   0  0  0  0  0  0  0  0  0  0  0  0
   11.5263   -1.3450    0.0000 C   0  0  0  0  0  0  0  0  0  0  0  0
    9.7942    1.6550    0.0000 C   0  0  0  0  0  0  0  0  0  0  0  0
    9.7942    2.6550    0.0000 C   0  0  0  0  0  0  0  0  0  0  0  0
   12.3923   -1.8450    0.0000 C   0  0  0  0  0  0  0  0  0  0  0  0
    8.9282    3.1550    0.0000 C   0  0  0  0  0  0  0  0  0  0  0  0
   12.3923   -2.8450    0.0000 C   0  0  0  0  0  0  0  0  0  0  0  0
   10.6603   -1.8450    0.0000 C   0  0  0  0  0  0  0  0  0  0  0  0
    7.1962    3.1550    0.0000 C   0  0  0  0  0  0  0  0  0  0  0  0
    8.0622    2.6550    0.0000 C   0  0  0  0  0  0  0  0  0  0  0  0
   11.5263   -3.3450    0.0000 C   0  0  0  0  0  0  0  0  0  0  0  0
    6.3301    2.6550    0.0000 C   0  0  0  0  0  0  0  0  0  0  0  0
   10.6603   -2.8450    0.0000 C   0  0  0  0  0  0  0  0  0  0  0  0
    8.9282    4.1550    0.0000 C   0  0  0  0  0  0  0  0  0  0  0  0
    7.1962    4.1550    0.0000 C   0  0  0  0  0  0  0  0  0  0  0  0
    8.0622    4.6550    0.0000 C   0  0  0  0  0  0  0  0  0  0  0  0
   13.9221   -2.3450    0.0000 C   0  0  0  0  0  0  0  0  0  0  0  0
    4.5981    2.6550    0.0000 C   0  0  0  0  0  0  0  0  0  0  0  0
    3.7320    3.1550    0.0000 C   0  0  0  0  0  0  0  0  0  0  0  0
    2.0000    3.1550    0.0000 C   0  0  0  0  0  0  0  0  0  0  0  0
   12.0632   -0.6550    0.0000 H   0  0  0  0  0  0  0  0  0  0  0  0
   10.0497    0.2627    0.0000 H   0  0  0  0  0  0  0  0  0  0  0  0
   10.4482   -0.4276    0.0000 H   0  0  0  0  0  0  0  0  0  0  0  0
    9.1836    1.7627    0.0000 H   0  0  0  0  0  0  0  0  0  0  0  0
    9.5822    1.0724    0.0000 H   0  0  0  0  0  0  0  0  0  0  0  0
   10.4048    2.5473    0.0000 H   0  0  0  0  0  0  0  0  0  0  0  0
   10.0063    3.2376    0.0000 H   0  0  0  0  0  0  0  0  0  0  0  0
   11.1972    1.4650    0.0000 H   0  0  0  0  0  0  0  0  0  0  0  0
   10.1233   -1.5350    0.0000 H   0  0  0  0  0  0  0  0  0  0  0  0
    8.0622    2.0350    0.0000 H   0  0  0  0  0  0  0  0  0  0  0  0
    5.9316    2.1800    0.0000 H   0  0  0  0  0  0  0  0  0  0  0  0
    6.7287    2.1800    0.0000 H   0  0  0  0  0  0  0  0  0  0  0  0
   10.1233   -3.1550    0.0000 H   0  0  0  0  0  0  0  0  0  0  0  0
    9.4651    4.4650    0.0000 H   0  0  0  0  0  0  0  0  0  0  0  0
   13.5311   -3.7390    0.0000 H   0  0  0  0  0  0  0  0  0  0  0  0
   12.3923    0.7750    0.0000 H   0  0  0  0  0  0  0  0  0  0  0  0
    6.6592    4.4650    0.0000 H   0  0  0  0  0  0  0  0  0  0  0  0
    8.0622    5.2750    0.0000 H   0  0  0  0  0  0  0  0  0  0  0  0
    5.4641    3.7750    0.0000 H   0  0  0  0  0  0  0  0  0  0  0  0
    4.1996    2.1800    0.0000 H   0  0  0  0  0  0  0  0  0  0  0  0
    4.9966    2.1800    0.0000 H   0  0  0  0  0  0  0  0  0  0  0  0
    4.1306    3.6300    0.0000 H   0  0  0  0  0  0  0  0  0  0  0  0
    3.3335    3.6300    0.0000 H   0  0  0  0  0  0  0  0  0  0  0  0
   10.9893   -4.6550    0.0000 H   0  0  0  0  0  0  0  0  0  0  0  0
    2.3100    3.6919    0.0000 H   0  0  0  0  0  0  0  0  0  0  0  0
    1.4631    3.4650    0.0000 H   0  0  0  0  0  0  0  0  0  0  0  0
    1.6900    2.6181    0.0000 H   0  0  0  0  0  0  0  0  0  0  0  0
  1 14  1  0  0  0  0
  1 26  1  0  0  0  0
  9  2  1  6  0  0  0
  2 45  1  0  0  0  0
  3 20  1  0  0  0  0
  3 53  1  0  0  0  0
  4 26  2  0  0  0  0
  5 28  1  0  0  0  0
  5 29  1  0  0  0  0
  6 10  1  0  0  0  0
  6 12  1  0  0  0  0
  6 37  1  0  0  0  0
  7 16  1  0  0  0  0
  7 26  1  0  0  0  0
  7 44  1  0  0  0  0
  8 21  1  0  0  0  0
  8 27  1  0  0  0  0
  8 48  1  0  0  0  0
  9 10  1  0  0  0  0
  9 11  1  0  0  0  0
  9 30  1  0  0  0  0
 10 31  1  0  0  0  0
 10 32  1  0  0  0  0
 11 14  2  0  0  0  0
 11 17  1  0  0  0  0
 12 13  1  0  0  0  0
 12 33  1  0  0  0  0
 12 34  1  0  0  0  0
 13 15  1  0  0  0  0
 13 35  1  0  0  0  0
 13 36  1  0  0  0  0
 14 16  1  0  0  0  0
 15 19  2  0  0  0  0
 15 23  1  0  0  0  0
 16 20  2  0  0  0  0
 17 22  2  0  0  0  0
 17 38  1  0  0  0  0
 18 19  1  0  0  0  0
 18 21  1  0  0  0  0
 18 24  2  0  0  0  0
 19 39  1  0  0  0  0
 20 22  1  0  0  0  0
 21 40  1  0  0  0  0
 21 41  1  0  0  0  0
 22 42  1  0  0  0  0
 23 25  2  0  0  0  0
 23 43  1  0  0  0  0
 24 25  1  0  0  0  0
 24 46  1  0  0  0  0
 25 47  1  0  0  0  0
 27 28  1  0  0  0  0
 27 49  1  0  0  0  0
 27 50  1  0  0  0  0
 28 51  1  0  0  0  0
 28 52  1  0  0  0  0
 29 54  1  0  0  0  0
 29 55  1  0  0  0  0
 29 56  1  0  0  0  0
M  END
> <PUBCHEM_COMPOUND_CID>
24901283

> <PUBCHEM_COMPOUND_CANONICALIZED>
1

> <PUBCHEM_CACTVS_COMPLEXITY>
512

> <PUBCHEM_CACTVS_HBOND_ACCEPTOR>
7

> <PUBCHEM_CACTVS_HBOND_DONOR>
5

> <PUBCHEM_CACTVS_ROTATABLE_BOND>
11

> <PUBCHEM_CACTVS_SUBSKEYS>
AAADceB7OABAAAAAAAAAAAAAAAAAAWAAAAAwYAAAAAAAAFgBQAAAHgQQCAAADBzh2AYyx4LABgiIAiRCUACCAABhKBAIiJQPTIgKNiLykZOFcAhk1BHY2Aew4OQOIAACRAAEEQBAAASIAAgiAAAAAAAAAA==

> <PUBCHEM_IUPAC_OPENEYE_NAME>
4-hydroxy-7-[(1R)-1-hydroxy-2-[2-[3-[(2-methoxyethylamino)methyl]phenyl]ethylamino]ethyl]-3H-1,3-benzothiazol-2-one

> <PUBCHEM_IUPAC_CAS_NAME>
4-hydroxy-7-[(1R)-1-hydroxy-2-[2-[3-[(2-methoxyethylamino)methyl]phenyl]ethylamino]ethyl]-3H-1,3-benzothiazol-2-one

> <PUBCHEM_IUPAC_NAME_MARKUP>
4-hydroxy-7-[(1<I>R</I>)-1-hydroxy-2-[2-[3-[(2-methoxyethylamino)methyl]phenyl]ethylamino]ethyl]-3<I>H</I>-1,3-benzothiazol-2-one

> <PUBCHEM_IUPAC_NAME>
4-hydroxy-7-[(1R)-1-hydroxy-2-[2-[3-[(2-methoxyethylamino)methyl]phenyl]ethylamino]ethyl]-3H-1,3-benzothiazol-2-one

> <PUBCHEM_IUPAC_SYSTEMATIC_NAME>
7-[(1R)-2-[2-[3-[(2-methoxyethylamino)methyl]phenyl]ethylamino]-1-oxidanyl-ethyl]-4-oxidanyl-3H-1,3-benzothiazol-2-one

> <PUBCHEM_IUPAC_TRADITIONAL_NAME>
4-hydroxy-7-[(1R)-1-hydroxy-2-[2-[3-[(2-methoxyethylamino)methyl]phenyl]ethylamino]ethyl]-3H-1,3-benzothiazol-2-one

> <PUBCHEM_IUPAC_INCHI>
InChI=1S/C21H27N3O4S/c1-28-10-9-23-12-15-4-2-3-14(11-15)7-8-22-13-18(26)16-5-6-17(25)19-20(16)29-21(27)24-19/h2-6,11,18,22-23,25-26H,7-10,12-13H2,1H3,(H,24,27)/t18-/m0/s1

> <PUBCHEM_IUPAC_INCHIKEY>
BGLYKONMLBFSGK-SFHVURJKSA-N

> <PUBCHEM_XLOGP3_AA>
1.2

> <PUBCHEM_EXACT_MASS>
417.17222752

> <PUBCHEM_MOLECULAR_FORMULA>
C21H27N3O4S

> <PUBCHEM_MOLECULAR_WEIGHT>
417.5

> <PUBCHEM_OPENEYE_CAN_SMILES>
COCCNCC1=CC=CC(=C1)CCNCC(C2=C3C(=C(C=C2)O)NC(=O)S3)O

> <PUBCHEM_OPENEYE_ISO_SMILES>
COCCNCC1=CC=CC(=C1)CCNC[C@@H](C2=C3C(=C(C=C2)O)NC(=O)S3)O

> <PUBCHEM_CACTVS_TPSA>
128

> <PUBCHEM_MONOISOTOPIC_WEIGHT>
417.17222752

> <PUBCHEM_TOTAL_CHARGE>
0

> <PUBCHEM_HEAVY_ATOM_COUNT>
29

> <PUBCHEM_ATOM_DEF_STEREO_COUNT>
1

> <PUBCHEM_ATOM_UDEF_STEREO_COUNT>
0

> <PUBCHEM_BOND_DEF_STEREO_COUNT>
0

> <PUBCHEM_BOND_UDEF_STEREO_COUNT>
0

> <PUBCHEM_ISOTOPIC_ATOM_COUNT>
0

> <PUBCHEM_COMPONENT_COUNT>
1

> <PUBCHEM_CACTVS_TAUTO_COUNT>
-1

> <PUBCHEM_COORDINATE_TYPE>
1
5
255

> <PUBCHEM_BONDANNOTATIONS>
1  14  8
1  26  8
11  14  8
11  17  8
14  16  8
15  19  8
15  23  8
16  20  8
17  22  8
18  19  8
18  24  8
9  2  6
20  22  8
23  25  8
24  25  8
7  16  8
7  26  8

$$$$
