9889700
  -OEChem-09292321582D

 61 64  0     0  0  0  0  0  0999 V2000
    8.3301    5.5311    0.0000 Cl  0  0  0  0  0  0  0  0  0  0  0  0
    5.8301    2.9330    0.0000 O   0  0  0  0  0  0  0  0  0  0  0  0
    6.3301    0.0670    0.0000 N   0  0  0  0  0  0  0  0  0  0  0  0
    3.5981   -1.2010    0.0000 N   0  0  0  0  0  0  0  0  0  0  0  0
    6.3301    2.0670    0.0000 C   0  0  0  0  0  0  0  0  0  0  0  0
    7.1962    1.5670    0.0000 C   0  0  0  0  0  0  0  0  0  0  0  0
    5.4641    1.5670    0.0000 C   0  0  0  0  0  0  0  0  0  0  0  0
    7.1962    0.5670    0.0000 C   0  0  0  0  0  0  0  0  0  0  0  0
    5.4641    0.5670    0.0000 C   0  0  0  0  0  0  0  0  0  0  0  0
    6.3301   -0.9330    0.0000 C   0  0  0  0  0  0  0  0  0  0  0  0
    6.8301    2.9330    0.0000 C   0  0  0  0  0  0  0  0  0  0  0  0
    5.4641   -1.4330    0.0000 C   0  0  0  0  0  0  0  0  0  0  0  0
    5.4641   -2.4330    0.0000 C   0  0  0  0  0  0  0  0  0  0  0  0
    4.5981   -2.9330    0.0000 C   0  0  0  0  0  0  0  0  0  0  0  0
    6.3301    3.7990    0.0000 C   0  0  0  0  0  0  0  0  0  0  0  0
    7.8301    2.9330    0.0000 C   0  0  0  0  0  0  0  0  0  0  0  0
    3.7320   -3.4330    0.0000 C   0  0  0  0  0  0  0  0  0  0  0  0
    5.0981   -3.7990    0.0000 C   0  0  0  0  0  0  0  0  0  0  0  0
    6.8301    4.6651    0.0000 C   0  0  0  0  0  0  0  0  0  0  0  0
    8.3301    3.7990    0.0000 C   0  0  0  0  0  0  0  0  0  0  0  0
    4.0981   -2.0670    0.0000 C   0  0  0  0  0  0  0  0  0  0  0  0
    7.8301    4.6651    0.0000 C   0  0  0  0  0  0  0  0  0  0  0  0
    3.7320   -4.4330    0.0000 C   0  0  0  0  0  0  0  0  0  0  0  0
    6.0981   -3.7990    0.0000 C   0  0  0  0  0  0  0  0  0  0  0  0
    2.8660   -2.9330    0.0000 C   0  0  0  0  0  0  0  0  0  0  0  0
    4.5981   -4.6651    0.0000 C   0  0  0  0  0  0  0  0  0  0  0  0
    2.8660   -4.9330    0.0000 C   0  0  0  0  0  0  0  0  0  0  0  0
    6.5981   -4.6651    0.0000 C   0  0  0  0  0  0  0  0  0  0  0  0
    2.0000   -3.4330    0.0000 C   0  0  0  0  0  0  0  0  0  0  0  0
    5.0981   -5.5311    0.0000 C   0  0  0  0  0  0  0  0  0  0  0  0
    2.0000   -4.4330    0.0000 C   0  0  0  0  0  0  0  0  0  0  0  0
    6.0981   -5.5311    0.0000 C   0  0  0  0  0  0  0  0  0  0  0  0
    7.8067    1.4593    0.0000 H   0  0  0  0  0  0  0  0  0  0  0  0
    7.4082    2.1496    0.0000 H   0  0  0  0  0  0  0  0  0  0  0  0
    5.2520    2.1496    0.0000 H   0  0  0  0  0  0  0  0  0  0  0  0
    4.8535    1.4593    0.0000 H   0  0  0  0  0  0  0  0  0  0  0  0
    7.4082   -0.0156    0.0000 H   0  0  0  0  0  0  0  0  0  0  0  0
    7.8067    0.6746    0.0000 H   0  0  0  0  0  0  0  0  0  0  0  0
    4.8535    0.6746    0.0000 H   0  0  0  0  0  0  0  0  0  0  0  0
    5.2520   -0.0156    0.0000 H   0  0  0  0  0  0  0  0  0  0  0  0
    6.5422   -1.5156    0.0000 H   0  0  0  0  0  0  0  0  0  0  0  0
    6.9407   -0.8254    0.0000 H   0  0  0  0  0  0  0  0  0  0  0  0
    5.2520   -0.8504    0.0000 H   0  0  0  0  0  0  0  0  0  0  0  0
    4.8535   -1.5407    0.0000 H   0  0  0  0  0  0  0  0  0  0  0  0
    5.6762   -3.0156    0.0000 H   0  0  0  0  0  0  0  0  0  0  0  0
    6.0747   -2.3253    0.0000 H   0  0  0  0  0  0  0  0  0  0  0  0
    5.2101    2.9330    0.0000 H   0  0  0  0  0  0  0  0  0  0  0  0
    5.7101    3.7990    0.0000 H   0  0  0  0  0  0  0  0  0  0  0  0
    8.1401    2.3961    0.0000 H   0  0  0  0  0  0  0  0  0  0  0  0
    6.5201    5.2020    0.0000 H   0  0  0  0  0  0  0  0  0  0  0  0
    8.9501    3.7990    0.0000 H   0  0  0  0  0  0  0  0  0  0  0  0
    4.2690   -4.7430    0.0000 H   0  0  0  0  0  0  0  0  0  0  0  0
    6.4081   -3.2621    0.0000 H   0  0  0  0  0  0  0  0  0  0  0  0
    2.8660   -2.3130    0.0000 H   0  0  0  0  0  0  0  0  0  0  0  0
    3.9781   -4.6651    0.0000 H   0  0  0  0  0  0  0  0  0  0  0  0
    2.8660   -5.5530    0.0000 H   0  0  0  0  0  0  0  0  0  0  0  0
    7.2181   -4.6651    0.0000 H   0  0  0  0  0  0  0  0  0  0  0  0
    1.4631   -3.1230    0.0000 H   0  0  0  0  0  0  0  0  0  0  0  0
    4.7881   -6.0680    0.0000 H   0  0  0  0  0  0  0  0  0  0  0  0
    1.4631   -4.7430    0.0000 H   0  0  0  0  0  0  0  0  0  0  0  0
    6.4081   -6.0680    0.0000 H   0  0  0  0  0  0  0  0  0  0  0  0
  1 22  1  0  0  0  0
  2  5  1  0  0  0  0
  2 47  1  0  0  0  0
  3  8  1  0  0  0  0
  3  9  1  0  0  0  0
  3 10  1  0  0  0  0
  4 21  3  0  0  0  0
  5  6  1  0  0  0  0
  5  7  1  0  0  0  0
  5 11  1  0  0  0  0
  6  8  1  0  0  0  0
  6 33  1  0  0  0  0
  6 34  1  0  0  0  0
  7  9  1  0  0  0  0
  7 35  1  0  0  0  0
  7 36  1  0  0  0  0
  8 37  1  0  0  0  0
  8 38  1  0  0  0  0
  9 39  1  0  0  0  0
  9 40  1  0  0  0  0
 10 12  1  0  0  0  0
 10 41  1  0  0  0  0
 10 42  1  0  0  0  0
 11 15  2  0  0  0  0
 11 16  1  0  0  0  0
 12 13  1  0  0  0  0
 12 43  1  0  0  0  0
 12 44  1  0  0  0  0
 13 14  1  0  0  0  0
 13 45  1  0  0  0  0
 13 46  1  0  0  0  0
 14 17  1  0  0  0  0
 14 18  1  0  0  0  0
 14 21  1  0  0  0  0
 15 19  1  0  0  0  0
 15 48  1  0  0  0  0
 16 20  2  0  0  0  0
 16 49  1  0  0  0  0
 17 23  2  0  0  0  0
 17 25  1  0  0  0  0
 18 24  2  0  0  0  0
 18 26  1  0  0  0  0
 19 22  2  0  0  0  0
 19 50  1  0  0  0  0
 20 22  1  0  0  0  0
 20 51  1  0  0  0  0
 23 27  1  0  0  0  0
 23 52  1  0  0  0  0
 24 28  1  0  0  0  0
 24 53  1  0  0  0  0
 25 29  2  0  0  0  0
 25 54  1  0  0  0  0
 26 30  2  0  0  0  0
 26 55  1  0  0  0  0
 27 31  2  0  0  0  0
 27 56  1  0  0  0  0
 28 32  2  0  0  0  0
 28 57  1  0  0  0  0
 29 31  1  0  0  0  0
 29 58  1  0  0  0  0
 30 32  1  0  0  0  0
 30 59  1  0  0  0  0
 31 60  1  0  0  0  0
 32 61  1  0  0  0  0
M  END
> <PUBCHEM_COMPOUND_CID>
9889700

> <PUBCHEM_COMPOUND_CANONICALIZED>
1

> <PUBCHEM_CACTVS_COMPLEXITY>
597

> <PUBCHEM_CACTVS_HBOND_ACCEPTOR>
3

> <PUBCHEM_CACTVS_HBOND_DONOR>
1

> <PUBCHEM_CACTVS_ROTATABLE_BOND>
7

> <PUBCHEM_CACTVS_SUBSKEYS>
AAADceB7IAAEAAAAAAAAAAAAAAAAAAAAAAA8YMEAAAAAAAABUAAAHgIACAAADkbBmCQwAIMAAgCQBiBCAAACAAAgBQAIiAAICogIpiKBkxCEcAAmwAGImA+QwOAPhAAAAAAAAAAIAAAAAAAAAAAAAAAAAA==

> <PUBCHEM_IUPAC_OPENEYE_NAME>
5-[4-(4-chlorophenyl)-4-hydroxy-1-piperidyl]-2,2-diphenyl-pentanenitrile

> <PUBCHEM_IUPAC_CAS_NAME>
5-[4-(4-chlorophenyl)-4-hydroxy-1-piperidinyl]-2,2-diphenylpentanenitrile

> <PUBCHEM_IUPAC_NAME_MARKUP>
5-[4-(4-chlorophenyl)-4-hydroxypiperidin-1-yl]-2,2-diphenylpentanenitrile

> <PUBCHEM_IUPAC_NAME>
5-[4-(4-chlorophenyl)-4-hydroxypiperidin-1-yl]-2,2-diphenylpentanenitrile

> <PUBCHEM_IUPAC_SYSTEMATIC_NAME>
5-[4-(4-chlorophenyl)-4-oxidanyl-piperidin-1-yl]-2,2-diphenyl-pentanenitrile

> <PUBCHEM_IUPAC_TRADITIONAL_NAME>
5-[4-(4-chlorophenyl)-4-hydroxy-piperidino]-2,2-diphenyl-valeronitrile

> <PUBCHEM_IUPAC_INCHI>
InChI=1S/C28H29ClN2O/c29-26-14-12-25(13-15-26)28(32)17-20-31(21-18-28)19-7-16-27(22-30,23-8-3-1-4-9-23)24-10-5-2-6-11-24/h1-6,8-15,32H,7,16-21H2

> <PUBCHEM_IUPAC_INCHIKEY>
MEEJEEVTIVAOJP-UHFFFAOYSA-N

> <PUBCHEM_XLOGP3_AA>
5.6

> <PUBCHEM_EXACT_MASS>
444.1968412

> <PUBCHEM_MOLECULAR_FORMULA>
C28H29ClN2O

> <PUBCHEM_MOLECULAR_WEIGHT>
445.0

> <PUBCHEM_OPENEYE_CAN_SMILES>
C1CN(CCC1(C2=CC=C(C=C2)Cl)O)CCCC(C#N)(C3=CC=CC=C3)C4=CC=CC=C4

> <PUBCHEM_OPENEYE_ISO_SMILES>
C1CN(CCC1(C2=CC=C(C=C2)Cl)O)CCCC(C#N)(C3=CC=CC=C3)C4=CC=CC=C4

> <PUBCHEM_CACTVS_TPSA>
47.3

> <PUBCHEM_MONOISOTOPIC_WEIGHT>
444.1968412

> <PUBCHEM_TOTAL_CHARGE>
0

> <PUBCHEM_HEAVY_ATOM_COUNT>
32

> <PUBCHEM_ATOM_DEF_STEREO_COUNT>
0

> <PUBCHEM_ATOM_UDEF_STEREO_COUNT>
0

> <PUBCHEM_BOND_DEF_STEREO_COUNT>
0

> <PUBCHEM_BOND_UDEF_STEREO_COUNT>
0

> <PUBCHEM_ISOTOPIC_ATOM_COUNT>
0

> <PUBCHEM_COMPONENT_COUNT>
1

> <PUBCHEM_CACTVS_TAUTO_COUNT>
-1

> <PUBCHEM_COORDINATE_TYPE>
1
5
255

> <PUBCHEM_BONDANNOTATIONS>
11  15  8
11  16  8
15  19  8
16  20  8
17  23  8
17  25  8
18  24  8
18  26  8
19  22  8
20  22  8
23  27  8
24  28  8
25  29  8
26  30  8
27  31  8
28  32  8
29  31  8
30  32  8

$$$$
