10707685
  -OEChem-09292322102D

 40 44  0     1  0  0  0  0  0999 V2000
    2.6456   -1.9867    0.0000 O   0  0  0  0  0  0  0  0  0  0  0  0
    6.2686    1.6056    0.0000 N   0  0  3  0  0  0  0  0  0  0  0  0
    5.4104    1.1086    0.0000 C   0  0  1  0  0  0  0  0  0  0  0  0
    5.4104    0.1086    0.0000 C   0  0  0  0  0  0  0  0  0  0  0  0
    4.5444   -0.3914    0.0000 C   0  0  0  0  0  0  0  0  0  0  0  0
    3.6784    0.1086    0.0000 C   0  0  0  0  0  0  0  0  0  0  0  0
    3.5403   -1.5400    0.0000 C   0  0  2  0  0  0  0  0  0  0  0  0
    4.5444    1.6086    0.0000 C   0  0  0  0  0  0  0  0  0  0  0  0
    4.5284   -1.4329    0.0000 C   0  0  0  0  0  0  0  0  0  0  0  0
    3.0605   -0.6697    0.0000 C   0  0  0  0  0  0  0  0  0  0  0  0
    3.6784    1.1086    0.0000 C   0  0  0  0  0  0  0  0  0  0  0  0
    6.3204   -0.3982    0.0000 C   0  0  0  0  0  0  0  0  0  0  0  0
    7.1598    0.1300    0.0000 C   0  0  0  0  0  0  0  0  0  0  0  0
    7.1341    1.1214    0.0000 C   0  0  0  0  0  0  0  0  0  0  0  0
    5.4264   -1.9606    0.0000 C   0  0  0  0  0  0  0  0  0  0  0  0
    6.3285   -1.4398    0.0000 C   0  0  0  0  0  0  0  0  0  0  0  0
    3.6887   -2.5289    0.0000 C   0  0  0  0  0  0  0  0  0  0  0  0
    2.1596   -0.2751    0.0000 C   0  0  0  0  0  0  0  0  0  0  0  0
    2.7270    1.3576    0.0000 C   0  0  0  0  0  0  0  0  0  0  0  0
    6.2613    2.6055    0.0000 C   0  0  0  0  0  0  0  0  0  0  0  0
    2.0000    0.6953    0.0000 C   0  0  0  0  0  0  0  0  0  0  0  0
    5.4099    1.9586    0.0000 H   0  0  0  0  0  0  0  0  0  0  0  0
    4.9429    2.0836    0.0000 H   0  0  0  0  0  0  0  0  0  0  0  0
    4.1459    2.0836    0.0000 H   0  0  0  0  0  0  0  0  0  0  0  0
    7.3915   -0.4450    0.0000 H   0  0  0  0  0  0  0  0  0  0  0  0
    7.7668    0.2559    0.0000 H   0  0  0  0  0  0  0  0  0  0  0  0
    7.7469    1.0270    0.0000 H   0  0  0  0  0  0  0  0  0  0  0  0
    7.3359    1.7077    0.0000 H   0  0  0  0  0  0  0  0  0  0  0  0
    5.4240   -2.5806    0.0000 H   0  0  0  0  0  0  0  0  0  0  0  0
    6.8666   -1.7477    0.0000 H   0  0  0  0  0  0  0  0  0  0  0  0
    3.0755   -2.6209    0.0000 H   0  0  0  0  0  0  0  0  0  0  0  0
    3.7806   -3.1421    0.0000 H   0  0  0  0  0  0  0  0  0  0  0  0
    4.3018   -2.4370    0.0000 H   0  0  0  0  0  0  0  0  0  0  0  0
    1.6700   -0.6555    0.0000 H   0  0  0  0  0  0  0  0  0  0  0  0
    2.5787    1.9597    0.0000 H   0  0  0  0  0  0  0  0  0  0  0  0
    6.8812    2.6101    0.0000 H   0  0  0  0  0  0  0  0  0  0  0  0
    6.2567    3.2255    0.0000 H   0  0  0  0  0  0  0  0  0  0  0  0
    5.6413    2.6010    0.0000 H   0  0  0  0  0  0  0  0  0  0  0  0
    1.4144    0.8988    0.0000 H   0  0  0  0  0  0  0  0  0  0  0  0
    2.6081   -2.6055    0.0000 H   0  0  0  0  0  0  0  0  0  0  0  0
  7  1  1  1  0  0  0
  1 40  1  0  0  0  0
  2  3  1  0  0  0  0
  2 14  1  0  0  0  0
  2 20  1  0  0  0  0
  3  4  1  0  0  0  0
  3  8  1  0  0  0  0
  3 22  1  6  0  0  0
  4  5  1  0  0  0  0
  4 12  2  0  0  0  0
  5  6  1  0  0  0  0
  5  9  2  0  0  0  0
  6 10  1  0  0  0  0
  6 11  2  0  0  0  0
  7  9  1  0  0  0  0
  7 10  1  0  0  0  0
  7 17  1  0  0  0  0
  8 11  1  0  0  0  0
  8 23  1  0  0  0  0
  8 24  1  0  0  0  0
  9 15  1  0  0  0  0
 10 18  2  0  0  0  0
 11 19  1  0  0  0  0
 12 13  1  0  0  0  0
 12 16  1  0  0  0  0
 13 14  1  0  0  0  0
 13 25  1  0  0  0  0
 13 26  1  0  0  0  0
 14 27  1  0  0  0  0
 14 28  1  0  0  0  0
 15 16  2  0  0  0  0
 15 29  1  0  0  0  0
 16 30  1  0  0  0  0
 17 31  1  0  0  0  0
 17 32  1  0  0  0  0
 17 33  1  0  0  0  0
 18 21  1  0  0  0  0
 18 34  1  0  0  0  0
 19 21  2  0  0  0  0
 19 35  1  0  0  0  0
 20 36  1  0  0  0  0
 20 37  1  0  0  0  0
 20 38  1  0  0  0  0
 21 39  1  0  0  0  0
M  END
> <PUBCHEM_COMPOUND_CID>
10707685

> <PUBCHEM_COMPOUND_CANONICALIZED>
1

> <PUBCHEM_CACTVS_COMPLEXITY>
451

> <PUBCHEM_CACTVS_HBOND_ACCEPTOR>
2

> <PUBCHEM_CACTVS_HBOND_DONOR>
1

> <PUBCHEM_CACTVS_ROTATABLE_BOND>
0

> <PUBCHEM_CACTVS_SUBSKEYS>
AAADceB6IAAAAAAAAAAAAAAAAAAAAYAAAAA8YMEAAAAAAGDxQAAAHgAACAAADGzBmAQyAIMAAgCAAiBCAACCAAAgAAAIiAAIDIgIJiKAkRGEcAhkwAGImAeQ0PMOwAACAAAQAACQAASAACQAAYAADAAAAA==

> <PUBCHEM_IUPAC_OPENEYE_NAME>
(6S,14R)-6,13-dimethyl-13-azapentacyclo[12.3.1.05,17.07,16.010,15]octadeca-1(17),2,4,7(16),8,10(15)-hexaen-6-ol

> <PUBCHEM_IUPAC_CAS_NAME>
(6S,14R)-6,13-dimethyl-13-azapentacyclo[12.3.1.05,17.07,16.010,15]octadeca-1(17),2,4,7(16),8,10(15)-hexaen-6-ol

> <PUBCHEM_IUPAC_NAME_MARKUP>
(6<I>S</I>,14<I>R</I>)-6,13-dimethyl-13-azapentacyclo[12.3.1.0<SUP>5,17</SUP>.0<SUP>7,16</SUP>.0<SUP>10,15</SUP>]octadeca-1(17),2,4,7(16),8,10(15)-hexaen-6-ol

> <PUBCHEM_IUPAC_NAME>
(6S,14R)-6,13-dimethyl-13-azapentacyclo[12.3.1.05,17.07,16.010,15]octadeca-1(17),2,4,7(16),8,10(15)-hexaen-6-ol

> <PUBCHEM_IUPAC_SYSTEMATIC_NAME>
(6S,14R)-6,13-dimethyl-13-azapentacyclo[12.3.1.05,17.07,16.010,15]octadeca-1(17),2,4,7(16),8,10(15)-hexaen-6-ol

> <PUBCHEM_IUPAC_TRADITIONAL_NAME>
(6S,14R)-6,13-dimethyl-13-azapentacyclo[12.3.1.05,17.07,16.010,15]octadeca-1(17),2,4,7(16),8,10(15)-hexaen-6-ol

> <PUBCHEM_IUPAC_INCHI>
InChI=1S/C19H19NO/c1-19(21)13-5-3-4-12-10-15-17-11(8-9-20(15)2)6-7-14(19)18(17)16(12)13/h3-7,15,21H,8-10H2,1-2H3/t15-,19+/m1/s1

> <PUBCHEM_IUPAC_INCHIKEY>
UIYKUTOPDMMXAX-BEFAXECRSA-N

> <PUBCHEM_XLOGP3_AA>
2.6

> <PUBCHEM_EXACT_MASS>
277.146664230

> <PUBCHEM_MOLECULAR_FORMULA>
C19H19NO

> <PUBCHEM_MOLECULAR_WEIGHT>
277.4

> <PUBCHEM_OPENEYE_CAN_SMILES>
CC1(C2=C3C4=C(CCN(C4CC5=C3C1=CC=C5)C)C=C2)O

> <PUBCHEM_OPENEYE_ISO_SMILES>
C[C@]1(C2=C3C4=C(CCN([C@@H]4CC5=C3C1=CC=C5)C)C=C2)O

> <PUBCHEM_CACTVS_TPSA>
23.5

> <PUBCHEM_MONOISOTOPIC_WEIGHT>
277.146664230

> <PUBCHEM_TOTAL_CHARGE>
0

> <PUBCHEM_HEAVY_ATOM_COUNT>
21

> <PUBCHEM_ATOM_DEF_STEREO_COUNT>
2

> <PUBCHEM_ATOM_UDEF_STEREO_COUNT>
0

> <PUBCHEM_BOND_DEF_STEREO_COUNT>
0

> <PUBCHEM_BOND_UDEF_STEREO_COUNT>
0

> <PUBCHEM_ISOTOPIC_ATOM_COUNT>
0

> <PUBCHEM_COMPONENT_COUNT>
1

> <PUBCHEM_CACTVS_TAUTO_COUNT>
-1

> <PUBCHEM_COORDINATE_TYPE>
1
5
255

> <PUBCHEM_BONDANNOTATIONS>
7  1  5
10  18  8
11  19  8
12  16  8
15  16  8
18  21  8
19  21  8
3  22  6
4  12  8
4  5  8
5  9  8
6  10  8
6  11  8
9  15  8

$$$$
