11175544
  -OEChem-09292322342D

 52 55  0     0  0  0  0  0  0999 V2000
    2.8660    1.0530    0.0000 O   0  0  0  0  0  0  0  0  0  0  0  0
    6.3301    1.0530    0.0000 N   0  0  0  0  0  0  0  0  0  0  0  0
    4.5981    0.0530    0.0000 N   0  0  0  0  0  0  0  0  0  0  0  0
   12.4725    1.3577    0.0000 N   0  0  0  0  0  0  0  0  0  0  0  0
   12.4725   -0.2518    0.0000 N   0  0  0  0  0  0  0  0  0  0  0  0
    6.3301    0.0530    0.0000 C   0  0  0  0  0  0  0  0  0  0  0  0
    5.4641    1.5530    0.0000 C   0  0  0  0  0  0  0  0  0  0  0  0
    5.4641   -0.4470    0.0000 C   0  0  0  0  0  0  0  0  0  0  0  0
    4.5981    1.0530    0.0000 C   0  0  0  0  0  0  0  0  0  0  0  0
    7.1962    1.5530    0.0000 C   0  0  0  0  0  0  0  0  0  0  0  0
    8.0622    1.0530    0.0000 C   0  0  0  0  0  0  0  0  0  0  0  0
    3.7320   -0.4470    0.0000 C   0  0  0  0  0  0  0  0  0  0  0  0
    8.9282    1.5530    0.0000 C   0  0  0  0  0  0  0  0  0  0  0  0
    9.7942    1.0530    0.0000 C   0  0  0  0  0  0  0  0  0  0  0  0
    2.8660    0.0530    0.0000 C   0  0  0  0  0  0  0  0  0  0  0  0
    3.7320   -1.4470    0.0000 C   0  0  0  0  0  0  0  0  0  0  0  0
   10.6603    1.5530    0.0000 C   0  0  0  0  0  0  0  0  0  0  0  0
    9.7942    0.0530    0.0000 C   0  0  0  0  0  0  0  0  0  0  0  0
    2.0000   -0.4470    0.0000 C   0  0  0  0  0  0  0  0  0  0  0  0
    2.8660   -1.9470    0.0000 C   0  0  0  0  0  0  0  0  0  0  0  0
   11.5263    1.0530    0.0000 C   0  0  0  0  0  0  0  0  0  0  0  0
    2.0000   -1.4470    0.0000 C   0  0  0  0  0  0  0  0  0  0  0  0
   11.5263    0.0530    0.0000 C   0  0  0  0  0  0  0  0  0  0  0  0
   10.6603   -0.4470    0.0000 C   0  0  0  0  0  0  0  0  0  0  0  0
   13.0561    0.5530    0.0000 C   0  0  0  0  0  0  0  0  0  0  0  0
    2.0000    1.5530    0.0000 C   0  0  0  0  0  0  0  0  0  0  0  0
    6.5422   -0.5296    0.0000 H   0  0  0  0  0  0  0  0  0  0  0  0
    6.9407    0.1606    0.0000 H   0  0  0  0  0  0  0  0  0  0  0  0
    5.8626    2.0279    0.0000 H   0  0  0  0  0  0  0  0  0  0  0  0
    5.0656    2.0279    0.0000 H   0  0  0  0  0  0  0  0  0  0  0  0
    5.0656   -0.9220    0.0000 H   0  0  0  0  0  0  0  0  0  0  0  0
    5.8626   -0.9220    0.0000 H   0  0  0  0  0  0  0  0  0  0  0  0
    4.3860    1.6356    0.0000 H   0  0  0  0  0  0  0  0  0  0  0  0
    3.9875    0.9453    0.0000 H   0  0  0  0  0  0  0  0  0  0  0  0
    7.5947    2.0279    0.0000 H   0  0  0  0  0  0  0  0  0  0  0  0
    6.7976    2.0279    0.0000 H   0  0  0  0  0  0  0  0  0  0  0  0
    7.6636    0.5780    0.0000 H   0  0  0  0  0  0  0  0  0  0  0  0
    8.4607    0.5780    0.0000 H   0  0  0  0  0  0  0  0  0  0  0  0
    9.3267    2.0279    0.0000 H   0  0  0  0  0  0  0  0  0  0  0  0
    8.5297    2.0279    0.0000 H   0  0  0  0  0  0  0  0  0  0  0  0
    4.2690   -1.7570    0.0000 H   0  0  0  0  0  0  0  0  0  0  0  0
   10.6603    2.1730    0.0000 H   0  0  0  0  0  0  0  0  0  0  0  0
    9.2573   -0.2570    0.0000 H   0  0  0  0  0  0  0  0  0  0  0  0
    1.4631   -0.1370    0.0000 H   0  0  0  0  0  0  0  0  0  0  0  0
    2.8660   -2.5670    0.0000 H   0  0  0  0  0  0  0  0  0  0  0  0
    1.4631   -1.7570    0.0000 H   0  0  0  0  0  0  0  0  0  0  0  0
   10.6603   -1.0670    0.0000 H   0  0  0  0  0  0  0  0  0  0  0  0
   12.6651    1.9470    0.0000 H   0  0  0  0  0  0  0  0  0  0  0  0
   13.6761    0.5530    0.0000 H   0  0  0  0  0  0  0  0  0  0  0  0
    2.3100    2.0899    0.0000 H   0  0  0  0  0  0  0  0  0  0  0  0
    1.4631    1.8630    0.0000 H   0  0  0  0  0  0  0  0  0  0  0  0
    1.6900    1.0160    0.0000 H   0  0  0  0  0  0  0  0  0  0  0  0
  1 15  1  0  0  0  0
  1 26  1  0  0  0  0
  2  6  1  0  0  0  0
  2  7  1  0  0  0  0
  2 10  1  0  0  0  0
  3  8  1  0  0  0  0
  3  9  1  0  0  0  0
  3 12  1  0  0  0  0
  4 21  1  0  0  0  0
  4 25  1  0  0  0  0
  4 48  1  0  0  0  0
  5 23  1  0  0  0  0
  5 25  2  0  0  0  0
  6  8  1  0  0  0  0
  6 27  1  0  0  0  0
  6 28  1  0  0  0  0
  7  9  1  0  0  0  0
  7 29  1  0  0  0  0
  7 30  1  0  0  0  0
  8 31  1  0  0  0  0
  8 32  1  0  0  0  0
  9 33  1  0  0  0  0
  9 34  1  0  0  0  0
 10 11  1  0  0  0  0
 10 35  1  0  0  0  0
 10 36  1  0  0  0  0
 11 13  1  0  0  0  0
 11 37  1  0  0  0  0
 11 38  1  0  0  0  0
 12 15  1  0  0  0  0
 12 16  2  0  0  0  0
 13 14  1  0  0  0  0
 13 39  1  0  0  0  0
 13 40  1  0  0  0  0
 14 17  2  0  0  0  0
 14 18  1  0  0  0  0
 15 19  2  0  0  0  0
 16 20  1  0  0  0  0
 16 41  1  0  0  0  0
 17 21  1  0  0  0  0
 17 42  1  0  0  0  0
 18 24  2  0  0  0  0
 18 43  1  0  0  0  0
 19 22  1  0  0  0  0
 19 44  1  0  0  0  0
 20 22  2  0  0  0  0
 20 45  1  0  0  0  0
 21 23  2  0  0  0  0
 22 46  1  0  0  0  0
 23 24  1  0  0  0  0
 24 47  1  0  0  0  0
 25 49  1  0  0  0  0
 26 50  1  0  0  0  0
 26 51  1  0  0  0  0
 26 52  1  0  0  0  0
M  END
> <PUBCHEM_COMPOUND_CID>
11175544

> <PUBCHEM_COMPOUND_CANONICALIZED>
1

> <PUBCHEM_CACTVS_COMPLEXITY>
426

> <PUBCHEM_CACTVS_HBOND_ACCEPTOR>
4

> <PUBCHEM_CACTVS_HBOND_DONOR>
1

> <PUBCHEM_CACTVS_ROTATABLE_BOND>
6

> <PUBCHEM_CACTVS_SUBSKEYS>
AAADceB7oAAAAAAAAAAAAAAAAAAAAWAAAAA8YIAAAAAAAFgB9AAAHgAQAAAADAzBngY31rfJlACgAyRjZACCiC2xMqAJ2aA/fJiObqLEuZuVMChs0BPY6CeQwIAOCAAAQAAAECAQAACAAAAgQAAAAAAAAA==

> <PUBCHEM_IUPAC_OPENEYE_NAME>
6-[3-[4-(2-methoxyphenyl)piperazin-1-yl]propyl]-1H-benzimidazole

> <PUBCHEM_IUPAC_CAS_NAME>
6-[3-[4-(2-methoxyphenyl)-1-piperazinyl]propyl]-1H-benzimidazole

> <PUBCHEM_IUPAC_NAME_MARKUP>
6-[3-[4-(2-methoxyphenyl)piperazin-1-yl]propyl]-1<I>H</I>-benzimidazole

> <PUBCHEM_IUPAC_NAME>
6-[3-[4-(2-methoxyphenyl)piperazin-1-yl]propyl]-1H-benzimidazole

> <PUBCHEM_IUPAC_SYSTEMATIC_NAME>
6-[3-[4-(2-methoxyphenyl)piperazin-1-yl]propyl]-1H-benzimidazole

> <PUBCHEM_IUPAC_TRADITIONAL_NAME>
6-[3-[4-(2-methoxyphenyl)piperazino]propyl]-1H-benzimidazole

> <PUBCHEM_IUPAC_INCHI>
InChI=1S/C21H26N4O/c1-26-21-7-3-2-6-20(21)25-13-11-24(12-14-25)10-4-5-17-8-9-18-19(15-17)23-16-22-18/h2-3,6-9,15-16H,4-5,10-14H2,1H3,(H,22,23)

> <PUBCHEM_IUPAC_INCHIKEY>
NLBCAUCTUSFOKY-UHFFFAOYSA-N

> <PUBCHEM_XLOGP3_AA>
3.7

> <PUBCHEM_EXACT_MASS>
350.21066147

> <PUBCHEM_MOLECULAR_FORMULA>
C21H26N4O

> <PUBCHEM_MOLECULAR_WEIGHT>
350.5

> <PUBCHEM_OPENEYE_CAN_SMILES>
COC1=CC=CC=C1N2CCN(CC2)CCCC3=CC4=C(C=C3)N=CN4

> <PUBCHEM_OPENEYE_ISO_SMILES>
COC1=CC=CC=C1N2CCN(CC2)CCCC3=CC4=C(C=C3)N=CN4

> <PUBCHEM_CACTVS_TPSA>
44.4

> <PUBCHEM_MONOISOTOPIC_WEIGHT>
350.21066147

> <PUBCHEM_TOTAL_CHARGE>
0

> <PUBCHEM_HEAVY_ATOM_COUNT>
26

> <PUBCHEM_ATOM_DEF_STEREO_COUNT>
0

> <PUBCHEM_ATOM_UDEF_STEREO_COUNT>
0

> <PUBCHEM_BOND_DEF_STEREO_COUNT>
0

> <PUBCHEM_BOND_UDEF_STEREO_COUNT>
0

> <PUBCHEM_ISOTOPIC_ATOM_COUNT>
0

> <PUBCHEM_COMPONENT_COUNT>
1

> <PUBCHEM_CACTVS_TAUTO_COUNT>
-1

> <PUBCHEM_COORDINATE_TYPE>
1
5
255

> <PUBCHEM_BONDANNOTATIONS>
12  15  8
12  16  8
14  17  8
14  18  8
15  19  8
16  20  8
17  21  8
18  24  8
19  22  8
20  22  8
21  23  8
23  24  8
4  21  8
4  25  8
5  23  8
5  25  8

$$$$
