155195429
  -OEChem-09292322402D

 52 55  0     1  0  0  0  0  0999 V2000
    6.0682   -1.2180    0.0000 O   0  0  0  0  0  0  0  0  0  0  0  0
    6.0682    1.7820    0.0000 O   0  0  0  0  0  0  0  0  0  0  0  0
    2.5381    0.8061    0.0000 O   0  0  0  0  0  0  0  0  0  0  0  0
   12.9965    1.7820    0.0000 O   0  0  0  0  0  0  0  0  0  0  0  0
    7.8003    0.7820    0.0000 N   0  0  0  0  0  0  0  0  0  0  0  0
   12.1304    0.2820    0.0000 N   0  0  0  0  0  0  0  0  0  0  0  0
   14.7703    0.6871    0.0000 N   0  0  0  0  0  0  0  0  0  0  0  0
    6.9343    0.2820    0.0000 C   0  0  3  0  0  0  0  0  0  0  0  0
    8.6663    0.2820    0.0000 C   0  0  0  0  0  0  0  0  0  0  0  0
    9.5323    0.7820    0.0000 C   0  0  0  0  0  0  0  0  0  0  0  0
    6.9343   -0.7180    0.0000 C   0  0  0  0  0  0  0  0  0  0  0  0
   10.3984    0.2820    0.0000 C   0  0  0  0  0  0  0  0  0  0  0  0
    6.0682    0.7820    0.0000 C   0  0  0  0  0  0  0  0  0  0  0  0
    5.2022    0.2820    0.0000 C   0  0  0  0  0  0  0  0  0  0  0  0
   11.2644    0.7820    0.0000 C   0  0  0  0  0  0  0  0  0  0  0  0
    5.2022   -0.7180    0.0000 C   0  0  0  0  0  0  0  0  0  0  0  0
    4.3083    0.8166    0.0000 C   0  0  0  0  0  0  0  0  0  0  0  0
    4.3083   -1.2527    0.0000 C   0  0  0  0  0  0  0  0  0  0  0  0
   13.8625    0.2820    0.0000 C   0  0  0  0  0  0  0  0  0  0  0  0
   12.9965    0.7820    0.0000 C   0  0  0  0  0  0  0  0  0  0  0  0
    3.4022    0.3028    0.0000 C   0  0  0  0  0  0  0  0  0  0  0  0
   15.4374   -0.0499    0.0000 C   0  0  0  0  0  0  0  0  0  0  0  0
   14.9374   -0.9160    0.0000 C   0  0  0  0  0  0  0  0  0  0  0  0
    3.4022   -0.7388    0.0000 C   0  0  0  0  0  0  0  0  0  0  0  0
   13.9655   -0.7067    0.0000 C   0  0  0  0  0  0  0  0  0  0  0  0
   16.4374   -0.0499    0.0000 C   0  0  0  0  0  0  0  0  0  0  0  0
   15.4374   -1.7820    0.0000 C   0  0  0  0  0  0  0  0  0  0  0  0
   16.9374   -0.9160    0.0000 C   0  0  0  0  0  0  0  0  0  0  0  0
   16.4374   -1.7820    0.0000 C   0  0  0  0  0  0  0  0  0  0  0  0
    6.9343    0.9020    0.0000 H   0  0  0  0  0  0  0  0  0  0  0  0
    8.2678   -0.1930    0.0000 H   0  0  0  0  0  0  0  0  0  0  0  0
    9.0649   -0.1930    0.0000 H   0  0  0  0  0  0  0  0  0  0  0  0
    9.9309    1.2569    0.0000 H   0  0  0  0  0  0  0  0  0  0  0  0
    9.1338    1.2569    0.0000 H   0  0  0  0  0  0  0  0  0  0  0  0
    7.8003    1.4020    0.0000 H   0  0  0  0  0  0  0  0  0  0  0  0
    7.1463   -1.3006    0.0000 H   0  0  0  0  0  0  0  0  0  0  0  0
    7.5449   -0.6104    0.0000 H   0  0  0  0  0  0  0  0  0  0  0  0
    9.9998   -0.1930    0.0000 H   0  0  0  0  0  0  0  0  0  0  0  0
   10.7969   -0.1930    0.0000 H   0  0  0  0  0  0  0  0  0  0  0  0
   11.6629    1.2569    0.0000 H   0  0  0  0  0  0  0  0  0  0  0  0
   10.8659    1.2569    0.0000 H   0  0  0  0  0  0  0  0  0  0  0  0
    4.3154    1.4366    0.0000 H   0  0  0  0  0  0  0  0  0  0  0  0
   12.1304   -0.3380    0.0000 H   0  0  0  0  0  0  0  0  0  0  0  0
    4.3154   -1.8726    0.0000 H   0  0  0  0  0  0  0  0  0  0  0  0
    2.8665   -1.0509    0.0000 H   0  0  0  0  0  0  0  0  0  0  0  0
   14.8981    1.2938    0.0000 H   0  0  0  0  0  0  0  0  0  0  0  0
   13.5041   -1.1208    0.0000 H   0  0  0  0  0  0  0  0  0  0  0  0
   16.7474    0.4870    0.0000 H   0  0  0  0  0  0  0  0  0  0  0  0
   15.1274   -2.3189    0.0000 H   0  0  0  0  0  0  0  0  0  0  0  0
   17.5574   -0.9160    0.0000 H   0  0  0  0  0  0  0  0  0  0  0  0
   16.7474   -2.3189    0.0000 H   0  0  0  0  0  0  0  0  0  0  0  0
    2.0000    0.4982    0.0000 H   0  0  0  0  0  0  0  0  0  0  0  0
  1 11  1  0  0  0  0
  1 16  1  0  0  0  0
  2 13  2  0  0  0  0
  3 21  1  0  0  0  0
  3 52  1  0  0  0  0
  4 20  2  0  0  0  0
  5  8  1  0  0  0  0
  5  9  1  0  0  0  0
  5 35  1  0  0  0  0
  6 15  1  0  0  0  0
  6 20  1  0  0  0  0
  6 43  1  0  0  0  0
  7 19  1  0  0  0  0
  7 22  1  0  0  0  0
  7 46  1  0  0  0  0
  8 11  1  0  0  0  0
  8 13  1  0  0  0  0
  8 30  1  0  0  0  0
  9 10  1  0  0  0  0
  9 31  1  0  0  0  0
  9 32  1  0  0  0  0
 10 12  1  0  0  0  0
 10 33  1  0  0  0  0
 10 34  1  0  0  0  0
 11 36  1  0  0  0  0
 11 37  1  0  0  0  0
 12 15  1  0  0  0  0
 12 38  1  0  0  0  0
 12 39  1  0  0  0  0
 13 14  1  0  0  0  0
 14 16  2  0  0  0  0
 14 17  1  0  0  0  0
 15 40  1  0  0  0  0
 15 41  1  0  0  0  0
 16 18  1  0  0  0  0
 17 21  2  0  0  0  0
 17 42  1  0  0  0  0
 18 24  2  0  0  0  0
 18 44  1  0  0  0  0
 19 20  1  0  0  0  0
 19 25  2  0  0  0  0
 21 24  1  0  0  0  0
 22 23  1  0  0  0  0
 22 26  2  0  0  0  0
 23 25  1  0  0  0  0
 23 27  2  0  0  0  0
 24 45  1  0  0  0  0
 25 47  1  0  0  0  0
 26 28  1  0  0  0  0
 26 48  1  0  0  0  0
 27 29  1  0  0  0  0
 27 49  1  0  0  0  0
 28 29  2  0  0  0  0
 28 50  1  0  0  0  0
 29 51  1  0  0  0  0
M  END
> <PUBCHEM_COMPOUND_CID>
155195429

> <PUBCHEM_COMPOUND_CANONICALIZED>
1

> <PUBCHEM_CACTVS_COMPLEXITY>
586

> <PUBCHEM_CACTVS_HBOND_ACCEPTOR>
5

> <PUBCHEM_CACTVS_HBOND_DONOR>
4

> <PUBCHEM_CACTVS_ROTATABLE_BOND>
7

> <PUBCHEM_CACTVS_SUBSKEYS>
AAADceB7OAAAAAAAAAAAAAAAAAAAAWAAAAA0YIAAAAAAAFiR9AAAHgAQCAAADCzhngYwxvLJlgCoA6VyVACCiCAnIiAImaG+bNgOZvbGtbuXeWjk9hHY+Yf62bOeAQABAAAKAAACAAIAABQAAAAAAAAAAA==

> <PUBCHEM_IUPAC_OPENEYE_NAME>
N-[4-[(6-hydroxy-4-oxo-chroman-3-yl)amino]butyl]-1H-indole-2-carboxamide

> <PUBCHEM_IUPAC_CAS_NAME>
N-[4-[(6-hydroxy-4-oxo-3,4-dihydro-2H-1-benzopyran-3-yl)amino]butyl]-1H-indole-2-carboxamide

> <PUBCHEM_IUPAC_NAME_MARKUP>
<I>N</I>-[4-[(6-hydroxy-4-oxo-2,3-dihydrochromen-3-yl)amino]butyl]-1<I>H</I>-indole-2-carboxamide

> <PUBCHEM_IUPAC_NAME>
N-[4-[(6-hydroxy-4-oxo-2,3-dihydrochromen-3-yl)amino]butyl]-1H-indole-2-carboxamide

> <PUBCHEM_IUPAC_SYSTEMATIC_NAME>
N-[4-[(6-oxidanyl-4-oxidanylidene-2,3-dihydrochromen-3-yl)amino]butyl]-1H-indole-2-carboxamide

> <PUBCHEM_IUPAC_TRADITIONAL_NAME>
N-[4-[(6-hydroxy-4-keto-chroman-3-yl)amino]butyl]-1H-indole-2-carboxamide

> <PUBCHEM_IUPAC_INCHI>
InChI=1S/C22H23N3O4/c26-15-7-8-20-16(12-15)21(27)19(13-29-20)23-9-3-4-10-24-22(28)18-11-14-5-1-2-6-17(14)25-18/h1-2,5-8,11-12,19,23,25-26H,3-4,9-10,13H2,(H,24,28)

> <PUBCHEM_IUPAC_INCHIKEY>
LXDKFBSEJYAHRD-UHFFFAOYSA-N

> <PUBCHEM_XLOGP3_AA>
2.9

> <PUBCHEM_EXACT_MASS>
393.16885622

> <PUBCHEM_MOLECULAR_FORMULA>
C22H23N3O4

> <PUBCHEM_MOLECULAR_WEIGHT>
393.4

> <PUBCHEM_OPENEYE_CAN_SMILES>
C1C(C(=O)C2=C(O1)C=CC(=C2)O)NCCCCNC(=O)C3=CC4=CC=CC=C4N3

> <PUBCHEM_OPENEYE_ISO_SMILES>
C1C(C(=O)C2=C(O1)C=CC(=C2)O)NCCCCNC(=O)C3=CC4=CC=CC=C4N3

> <PUBCHEM_CACTVS_TPSA>
103

> <PUBCHEM_MONOISOTOPIC_WEIGHT>
393.16885622

> <PUBCHEM_TOTAL_CHARGE>
0

> <PUBCHEM_HEAVY_ATOM_COUNT>
29

> <PUBCHEM_ATOM_DEF_STEREO_COUNT>
0

> <PUBCHEM_ATOM_UDEF_STEREO_COUNT>
1

> <PUBCHEM_BOND_DEF_STEREO_COUNT>
0

> <PUBCHEM_BOND_UDEF_STEREO_COUNT>
0

> <PUBCHEM_ISOTOPIC_ATOM_COUNT>
0

> <PUBCHEM_COMPONENT_COUNT>
1

> <PUBCHEM_CACTVS_TAUTO_COUNT>
-1

> <PUBCHEM_COORDINATE_TYPE>
1
5
255

> <PUBCHEM_BONDANNOTATIONS>
14  16  8
14  17  8
16  18  8
17  21  8
18  24  8
19  25  8
21  24  8
22  23  8
22  26  8
23  25  8
23  27  8
26  28  8
27  29  8
28  29  8
8  5  3
7  19  8
7  22  8

$$$$
