44350675
  -OEChem-09292322122D

 74 77  0     0  0  0  0  0  0999 V2000
    1.4030    4.5000    0.0000 O   0  0  0  0  0  0  0  0  0  0  0  0
    9.1972    0.0000    0.0000 O   0  0  0  0  0  0  0  0  0  0  0  0
    8.3645   11.1295    0.0000 O   0  0  0  0  0  0  0  0  0  0  0  0
    5.7665   11.6295    0.0000 O   0  0  0  0  0  0  0  0  0  0  0  0
    7.4985   12.6295    0.0000 O   0  0  0  0  0  0  0  0  0  0  0  0
    6.6325   10.1295    0.0000 O   0  0  0  0  0  0  0  0  0  0  0  0
    4.8671    4.5000    0.0000 N   0  0  0  0  0  0  0  0  0  0  0  0
    3.1350    5.5000    0.0000 N   0  0  0  0  0  0  0  0  0  0  0  0
    8.3312    1.5000    0.0000 N   0  0  0  0  0  0  0  0  0  0  0  0
    4.8671    5.5000    0.0000 C   0  0  0  0  0  0  0  0  0  0  0  0
    4.0010    4.0000    0.0000 C   0  0  0  0  0  0  0  0  0  0  0  0
    4.0010    6.0000    0.0000 C   0  0  0  0  0  0  0  0  0  0  0  0
    3.1350    4.5000    0.0000 C   0  0  0  0  0  0  0  0  0  0  0  0
    5.7331    4.0000    0.0000 C   0  0  0  0  0  0  0  0  0  0  0  0
    2.2690    6.0000    0.0000 C   0  0  0  0  0  0  0  0  0  0  0  0
    5.7331    3.0000    0.0000 C   0  0  0  0  0  0  0  0  0  0  0  0
    1.4030    5.5000    0.0000 C   0  0  0  0  0  0  0  0  0  0  0  0
    2.2690    7.0000    0.0000 C   0  0  0  0  0  0  0  0  0  0  0  0
    6.5991    2.5000    0.0000 C   0  0  0  0  0  0  0  0  0  0  0  0
    4.8671    2.5000    0.0000 C   0  0  0  0  0  0  0  0  0  0  0  0
    6.5991    1.5000    0.0000 C   0  0  0  0  0  0  0  0  0  0  0  0
    0.5369    6.0000    0.0000 C   0  0  0  0  0  0  0  0  0  0  0  0
    1.4030    7.5000    0.0000 C   0  0  0  0  0  0  0  0  0  0  0  0
    4.8671    1.5000    0.0000 C   0  0  0  0  0  0  0  0  0  0  0  0
    5.7331    1.0000    0.0000 C   0  0  0  0  0  0  0  0  0  0  0  0
    7.4651    1.0000    0.0000 C   0  0  0  0  0  0  0  0  0  0  0  0
    0.5369    7.0000    0.0000 C   0  0  0  0  0  0  0  0  0  0  0  0
    0.5369    4.0000    0.0000 C   0  0  0  0  0  0  0  0  0  0  0  0
    9.1972    1.0000    0.0000 C   0  0  0  0  0  0  0  0  0  0  0  0
   10.0632    1.5000    0.0000 C   0  0  0  0  0  0  0  0  0  0  0  0
   10.9292    1.0000    0.0000 C   0  0  0  0  0  0  0  0  0  0  0  0
   11.7953    1.5000    0.0000 C   0  0  0  0  0  0  0  0  0  0  0  0
   11.7953    2.5000    0.0000 C   0  0  0  0  0  0  0  0  0  0  0  0
   10.0632    2.5000    0.0000 C   0  0  0  0  0  0  0  0  0  0  0  0
   10.9292    3.0000    0.0000 C   0  0  0  0  0  0  0  0  0  0  0  0
   12.6892    0.9653    0.0000 C   0  0  0  0  0  0  0  0  0  0  0  0
   12.6892    3.0347    0.0000 C   0  0  0  0  0  0  0  0  0  0  0  0
   13.5953    1.4792    0.0000 C   0  0  0  0  0  0  0  0  0  0  0  0
   13.5953    2.5208    0.0000 C   0  0  0  0  0  0  0  0  0  0  0  0
    7.4985   11.6295    0.0000 C   0  0  0  0  0  0  0  0  0  0  0  0
    6.6325   11.1295    0.0000 C   0  0  0  0  0  0  0  0  0  0  0  0
    5.4776    5.3923    0.0000 H   0  0  0  0  0  0  0  0  0  0  0  0
    5.0791    6.0826    0.0000 H   0  0  0  0  0  0  0  0  0  0  0  0
    3.6025    3.5250    0.0000 H   0  0  0  0  0  0  0  0  0  0  0  0
    4.3996    3.5250    0.0000 H   0  0  0  0  0  0  0  0  0  0  0  0
    4.3996    6.4750    0.0000 H   0  0  0  0  0  0  0  0  0  0  0  0
    3.6025    6.4750    0.0000 H   0  0  0  0  0  0  0  0  0  0  0  0
    2.5244    4.6077    0.0000 H   0  0  0  0  0  0  0  0  0  0  0  0
    2.9230    3.9174    0.0000 H   0  0  0  0  0  0  0  0  0  0  0  0
    6.3437    3.8923    0.0000 H   0  0  0  0  0  0  0  0  0  0  0  0
    5.9451    4.5826    0.0000 H   0  0  0  0  0  0  0  0  0  0  0  0
    2.8059    7.3100    0.0000 H   0  0  0  0  0  0  0  0  0  0  0  0
    7.1360    2.8100    0.0000 H   0  0  0  0  0  0  0  0  0  0  0  0
    4.3301    2.8100    0.0000 H   0  0  0  0  0  0  0  0  0  0  0  0
    0.0000    5.6900    0.0000 H   0  0  0  0  0  0  0  0  0  0  0  0
    1.4030    8.1200    0.0000 H   0  0  0  0  0  0  0  0  0  0  0  0
    4.3301    1.1900    0.0000 H   0  0  0  0  0  0  0  0  0  0  0  0
    5.7331    0.3800    0.0000 H   0  0  0  0  0  0  0  0  0  0  0  0
    7.0666    0.5251    0.0000 H   0  0  0  0  0  0  0  0  0  0  0  0
    7.8637    0.5251    0.0000 H   0  0  0  0  0  0  0  0  0  0  0  0
    0.0000    7.3100    0.0000 H   0  0  0  0  0  0  0  0  0  0  0  0
    8.3312    2.1200    0.0000 H   0  0  0  0  0  0  0  0  0  0  0  0
    0.2269    4.5369    0.0000 H   0  0  0  0  0  0  0  0  0  0  0  0
    0.0000    3.6900    0.0000 H   0  0  0  0  0  0  0  0  0  0  0  0
    0.8469    3.4631    0.0000 H   0  0  0  0  0  0  0  0  0  0  0  0
   10.9292    0.3800    0.0000 H   0  0  0  0  0  0  0  0  0  0  0  0
    9.5263    2.8100    0.0000 H   0  0  0  0  0  0  0  0  0  0  0  0
   10.9292    3.6200    0.0000 H   0  0  0  0  0  0  0  0  0  0  0  0
   12.6820    0.3454    0.0000 H   0  0  0  0  0  0  0  0  0  0  0  0
   12.6820    3.6546    0.0000 H   0  0  0  0  0  0  0  0  0  0  0  0
   14.1310    1.1671    0.0000 H   0  0  0  0  0  0  0  0  0  0  0  0
   14.1310    2.8329    0.0000 H   0  0  0  0  0  0  0  0  0  0  0  0
    8.9015   11.4395    0.0000 H   0  0  0  0  0  0  0  0  0  0  0  0
    5.2295   11.3195    0.0000 H   0  0  0  0  0  0  0  0  0  0  0  0
  1 17  1  0  0  0  0
  1 28  1  0  0  0  0
  2 29  2  0  0  0  0
  3 40  1  0  0  0  0
  3 73  1  0  0  0  0
  4 41  1  0  0  0  0
  4 74  1  0  0  0  0
  5 40  2  0  0  0  0
  6 41  2  0  0  0  0
  7 10  1  0  0  0  0
  7 11  1  0  0  0  0
  7 14  1  0  0  0  0
  8 12  1  0  0  0  0
  8 13  1  0  0  0  0
  8 15  1  0  0  0  0
  9 26  1  0  0  0  0
  9 29  1  0  0  0  0
  9 62  1  0  0  0  0
 10 12  1  0  0  0  0
 10 42  1  0  0  0  0
 10 43  1  0  0  0  0
 11 13  1  0  0  0  0
 11 44  1  0  0  0  0
 11 45  1  0  0  0  0
 12 46  1  0  0  0  0
 12 47  1  0  0  0  0
 13 48  1  0  0  0  0
 13 49  1  0  0  0  0
 14 16  1  0  0  0  0
 14 50  1  0  0  0  0
 14 51  1  0  0  0  0
 15 17  1  0  0  0  0
 15 18  2  0  0  0  0
 16 19  1  0  0  0  0
 16 20  2  0  0  0  0
 17 22  2  0  0  0  0
 18 23  1  0  0  0  0
 18 52  1  0  0  0  0
 19 21  2  0  0  0  0
 19 53  1  0  0  0  0
 20 24  1  0  0  0  0
 20 54  1  0  0  0  0
 21 25  1  0  0  0  0
 21 26  1  0  0  0  0
 22 27  1  0  0  0  0
 22 55  1  0  0  0  0
 23 27  2  0  0  0  0
 23 56  1  0  0  0  0
 24 25  2  0  0  0  0
 24 57  1  0  0  0  0
 25 58  1  0  0  0  0
 26 59  1  0  0  0  0
 26 60  1  0  0  0  0
 27 61  1  0  0  0  0
 28 63  1  0  0  0  0
 28 64  1  0  0  0  0
 28 65  1  0  0  0  0
 29 30  1  0  0  0  0
 30 31  2  0  0  0  0
 30 34  1  0  0  0  0
 31 32  1  0  0  0  0
 31 66  1  0  0  0  0
 32 33  1  0  0  0  0
 32 36  2  0  0  0  0
 33 35  1  0  0  0  0
 33 37  2  0  0  0  0
 34 35  2  0  0  0  0
 34 67  1  0  0  0  0
 35 68  1  0  0  0  0
 36 38  1  0  0  0  0
 36 69  1  0  0  0  0
 37 39  1  0  0  0  0
 37 70  1  0  0  0  0
 38 39  2  0  0  0  0
 38 71  1  0  0  0  0
 39 72  1  0  0  0  0
 40 41  1  0  0  0  0
M  END
> <PUBCHEM_COMPOUND_CID>
44350675

> <PUBCHEM_COMPOUND_CANONICALIZED>
1

> <PUBCHEM_CACTVS_COMPLEXITY>
736

> <PUBCHEM_CACTVS_HBOND_ACCEPTOR>
8

> <PUBCHEM_CACTVS_HBOND_DONOR>
3

> <PUBCHEM_CACTVS_ROTATABLE_BOND>
8

> <PUBCHEM_CACTVS_SUBSKEYS>
AAADcfB/OAAAAAAAAAAAAAAAAAAAAAAAAAA8YMGCAAAAAADBVAAAHgAQCAAADAzBmAYyzsPABgCIAiXSWAKCCAAlIgAIiIFPbMgPZjLEtZuVMShkxhHZ6YeYyMCOwAACAAAQEACAAAQAACAgAAAAAAAAAA==

> <PUBCHEM_IUPAC_OPENEYE_NAME>
N-[[3-[[4-(2-methoxyphenyl)piperazin-1-yl]methyl]phenyl]methyl]naphthalene-2-carboxamide;oxalic acid

> <PUBCHEM_IUPAC_CAS_NAME>
N-[[3-[[4-(2-methoxyphenyl)-1-piperazinyl]methyl]phenyl]methyl]-2-naphthalenecarboxamide;oxalic acid

> <PUBCHEM_IUPAC_NAME_MARKUP>
<I>N</I>-[[3-[[4-(2-methoxyphenyl)piperazin-1-yl]methyl]phenyl]methyl]naphthalene-2-carboxamide;oxalic acid

> <PUBCHEM_IUPAC_NAME>
N-[[3-[[4-(2-methoxyphenyl)piperazin-1-yl]methyl]phenyl]methyl]naphthalene-2-carboxamide;oxalic acid

> <PUBCHEM_IUPAC_SYSTEMATIC_NAME>
ethanedioic acid;N-[[3-[[4-(2-methoxyphenyl)piperazin-1-yl]methyl]phenyl]methyl]naphthalene-2-carboxamide

> <PUBCHEM_IUPAC_TRADITIONAL_NAME>
N-[3-[[4-(2-methoxyphenyl)piperazino]methyl]benzyl]-2-naphthamide;oxalic acid

> <PUBCHEM_IUPAC_INCHI>
InChI=1S/C30H31N3O2.C2H2O4/c1-35-29-12-5-4-11-28(29)33-17-15-32(16-18-33)22-24-8-6-7-23(19-24)21-31-30(34)27-14-13-25-9-2-3-10-26(25)20-27;3-1(4)2(5)6/h2-14,19-20H,15-18,21-22H2,1H3,(H,31,34);(H,3,4)(H,5,6)

> <PUBCHEM_IUPAC_INCHIKEY>
XIEUIDUUQKULBC-UHFFFAOYSA-N

> <PUBCHEM_EXACT_MASS>
555.23693578

> <PUBCHEM_MOLECULAR_FORMULA>
C32H33N3O6

> <PUBCHEM_MOLECULAR_WEIGHT>
555.6

> <PUBCHEM_OPENEYE_CAN_SMILES>
COC1=CC=CC=C1N2CCN(CC2)CC3=CC=CC(=C3)CNC(=O)C4=CC5=CC=CC=C5C=C4.C(=O)(C(=O)O)O

> <PUBCHEM_OPENEYE_ISO_SMILES>
COC1=CC=CC=C1N2CCN(CC2)CC3=CC=CC(=C3)CNC(=O)C4=CC5=CC=CC=C5C=C4.C(=O)(C(=O)O)O

> <PUBCHEM_CACTVS_TPSA>
119

> <PUBCHEM_MONOISOTOPIC_WEIGHT>
555.23693578

> <PUBCHEM_TOTAL_CHARGE>
0

> <PUBCHEM_HEAVY_ATOM_COUNT>
41

> <PUBCHEM_ATOM_DEF_STEREO_COUNT>
0

> <PUBCHEM_ATOM_UDEF_STEREO_COUNT>
0

> <PUBCHEM_BOND_DEF_STEREO_COUNT>
0

> <PUBCHEM_BOND_UDEF_STEREO_COUNT>
0

> <PUBCHEM_ISOTOPIC_ATOM_COUNT>
0

> <PUBCHEM_COMPONENT_COUNT>
2

> <PUBCHEM_CACTVS_TAUTO_COUNT>
-1

> <PUBCHEM_COORDINATE_TYPE>
1
5
255

> <PUBCHEM_BONDANNOTATIONS>
15  17  8
15  18  8
16  19  8
16  20  8
17  22  8
18  23  8
19  21  8
20  24  8
21  25  8
22  27  8
23  27  8
24  25  8
30  31  8
30  34  8
31  32  8
32  33  8
32  36  8
33  35  8
33  37  8
34  35  8
36  38  8
37  39  8
38  39  8

$$$$
