45486902
  -OEChem-09292322292D

 61 66  0     1  0  0  0  0  0999 V2000
    2.0000   -0.3177    0.0000 F   0  0  0  0  0  0  0  0  0  0  0  0
   12.3255   -0.2468    0.0000 O   0  0  0  0  0  0  0  0  0  0  0  0
   13.8656   -1.7769    0.0000 O   0  0  0  0  0  0  0  0  0  0  0  0
   14.9766   -3.1629    0.0000 O   0  0  0  0  0  0  0  0  0  0  0  0
    8.7224   -0.1135    0.0000 N   0  0  0  0  0  0  0  0  0  0  0  0
    4.8717    2.5429    0.0000 N   0  0  0  0  0  0  0  0  0  0  0  0
   15.4411   -1.4484    0.0000 N   0  0  0  0  0  0  0  0  0  0  0  0
    7.0772    0.4280    0.0000 C   0  0  3  0  0  0  0  0  0  0  0  0
    7.7435   -0.3177    0.0000 C   0  0  0  0  0  0  0  0  0  0  0  0
    7.3991    1.4187    0.0000 C   0  0  0  0  0  0  0  0  0  0  0  0
   10.6803    0.2947    0.0000 C   0  0  0  0  0  0  0  0  0  0  0  0
    6.0567    0.2193    0.0000 C   0  0  0  0  0  0  0  0  0  0  0  0
    9.3887   -0.8593    0.0000 C   0  0  0  0  0  0  0  0  0  0  0  0
    9.0351    0.8363    0.0000 C   0  0  0  0  0  0  0  0  0  0  0  0
   10.3676   -0.6551    0.0000 C   0  0  0  0  0  0  0  0  0  0  0  0
   10.0140    1.0405    0.0000 C   0  0  0  0  0  0  0  0  0  0  0  0
    6.6962    2.1874    0.0000 C   0  0  0  0  0  0  0  0  0  0  0  0
    5.3717    1.0041    0.0000 C   0  0  0  0  0  0  0  0  0  0  0  0
    5.6808    1.9551    0.0000 C   0  0  0  0  0  0  0  0  0  0  0  0
   11.6592    0.4989    0.0000 C   0  0  0  0  0  0  0  0  0  0  0  0
    4.3717    1.0041    0.0000 C   0  0  0  0  0  0  0  0  0  0  0  0
    4.0627    1.9551    0.0000 C   0  0  0  0  0  0  0  0  0  0  0  0
    3.6868    0.2193    0.0000 C   0  0  0  0  0  0  0  0  0  0  0  0
    3.0473    2.1874    0.0000 C   0  0  0  0  0  0  0  0  0  0  0  0
    2.6663    0.4280    0.0000 C   0  0  0  0  0  0  0  0  0  0  0  0
    2.3444    1.4187    0.0000 C   0  0  0  0  0  0  0  0  0  0  0  0
   13.3044   -0.0427    0.0000 C   0  0  0  0  0  0  0  0  0  0  0  0
   13.9707   -0.7884    0.0000 C   0  0  0  0  0  0  0  0  0  0  0  0
   13.6171    0.9072    0.0000 C   0  0  0  0  0  0  0  0  0  0  0  0
   14.9497   -0.5843    0.0000 C   0  0  0  0  0  0  0  0  0  0  0  0
   14.5961    1.1113    0.0000 C   0  0  0  0  0  0  0  0  0  0  0  0
   15.2623    0.3656    0.0000 C   0  0  0  0  0  0  0  0  0  0  0  0
   14.7725   -2.1840    0.0000 C   0  0  0  0  0  0  0  0  0  0  0  0
    6.8822   -0.1605    0.0000 H   0  0  0  0  0  0  0  0  0  0  0  0
    7.2164   -0.6442    0.0000 H   0  0  0  0  0  0  0  0  0  0  0  0
    7.9735   -0.8934    0.0000 H   0  0  0  0  0  0  0  0  0  0  0  0
    7.9473    1.1290    0.0000 H   0  0  0  0  0  0  0  0  0  0  0  0
    7.7783    1.9092    0.0000 H   0  0  0  0  0  0  0  0  0  0  0  0
   11.0934   -0.1676    0.0000 H   0  0  0  0  0  0  0  0  0  0  0  0
    5.5267   -0.1024    0.0000 H   0  0  0  0  0  0  0  0  0  0  0  0
    6.2830   -0.3579    0.0000 H   0  0  0  0  0  0  0  0  0  0  0  0
    8.8616   -1.1858    0.0000 H   0  0  0  0  0  0  0  0  0  0  0  0
    9.6187   -1.4350    0.0000 H   0  0  0  0  0  0  0  0  0  0  0  0
    9.0158    1.4560    0.0000 H   0  0  0  0  0  0  0  0  0  0  0  0
    8.4215    0.9250    0.0000 H   0  0  0  0  0  0  0  0  0  0  0  0
   10.3869   -1.2748    0.0000 H   0  0  0  0  0  0  0  0  0  0  0  0
   10.9813   -0.7438    0.0000 H   0  0  0  0  0  0  0  0  0  0  0  0
   10.5411    1.3670    0.0000 H   0  0  0  0  0  0  0  0  0  0  0  0
    9.7840    1.6162    0.0000 H   0  0  0  0  0  0  0  0  0  0  0  0
    7.2186    2.5213    0.0000 H   0  0  0  0  0  0  0  0  0  0  0  0
    6.4565    2.7592    0.0000 H   0  0  0  0  0  0  0  0  0  0  0  0
   12.1863    0.8254    0.0000 H   0  0  0  0  0  0  0  0  0  0  0  0
   11.4292    1.0746    0.0000 H   0  0  0  0  0  0  0  0  0  0  0  0
    4.8717    3.1629    0.0000 H   0  0  0  0  0  0  0  0  0  0  0  0
    3.8852   -0.3681    0.0000 H   0  0  0  0  0  0  0  0  0  0  0  0
    2.8626    2.7792    0.0000 H   0  0  0  0  0  0  0  0  0  0  0  0
    1.7384    1.5499    0.0000 H   0  0  0  0  0  0  0  0  0  0  0  0
   13.2040    1.3695    0.0000 H   0  0  0  0  0  0  0  0  0  0  0  0
   14.7899    1.7002    0.0000 H   0  0  0  0  0  0  0  0  0  0  0  0
   15.8693    0.4921    0.0000 H   0  0  0  0  0  0  0  0  0  0  0  0
   16.0574   -1.5166    0.0000 H   0  0  0  0  0  0  0  0  0  0  0  0
  1 25  1  0  0  0  0
  2 20  1  0  0  0  0
  2 27  1  0  0  0  0
  3 28  1  0  0  0  0
  3 33  1  0  0  0  0
  4 33  2  0  0  0  0
  5  9  1  0  0  0  0
  5 13  1  0  0  0  0
  5 14  1  0  0  0  0
  6 19  1  0  0  0  0
  6 22  1  0  0  0  0
  6 54  1  0  0  0  0
  7 30  1  0  0  0  0
  7 33  1  0  0  0  0
  7 61  1  0  0  0  0
  8  9  1  0  0  0  0
  8 10  1  0  0  0  0
  8 12  1  0  0  0  0
  8 34  1  0  0  0  0
  9 35  1  0  0  0  0
  9 36  1  0  0  0  0
 10 17  1  0  0  0  0
 10 37  1  0  0  0  0
 10 38  1  0  0  0  0
 11 15  1  0  0  0  0
 11 16  1  0  0  0  0
 11 20  1  0  0  0  0
 11 39  1  0  0  0  0
 12 18  1  0  0  0  0
 12 40  1  0  0  0  0
 12 41  1  0  0  0  0
 13 15  1  0  0  0  0
 13 42  1  0  0  0  0
 13 43  1  0  0  0  0
 14 16  1  0  0  0  0
 14 44  1  0  0  0  0
 14 45  1  0  0  0  0
 15 46  1  0  0  0  0
 15 47  1  0  0  0  0
 16 48  1  0  0  0  0
 16 49  1  0  0  0  0
 17 19  1  0  0  0  0
 17 50  1  0  0  0  0
 17 51  1  0  0  0  0
 18 19  2  0  0  0  0
 18 21  1  0  0  0  0
 20 52  1  0  0  0  0
 20 53  1  0  0  0  0
 21 22  2  0  0  0  0
 21 23  1  0  0  0  0
 22 24  1  0  0  0  0
 23 25  2  0  0  0  0
 23 55  1  0  0  0  0
 24 26  2  0  0  0  0
 24 56  1  0  0  0  0
 25 26  1  0  0  0  0
 26 57  1  0  0  0  0
 27 28  1  0  0  0  0
 27 29  2  0  0  0  0
 28 30  2  0  0  0  0
 29 31  1  0  0  0  0
 29 58  1  0  0  0  0
 30 32  1  0  0  0  0
 31 32  2  0  0  0  0
 31 59  1  0  0  0  0
 32 60  1  0  0  0  0
M  END
> <PUBCHEM_COMPOUND_CID>
45486902

> <PUBCHEM_COMPOUND_CANONICALIZED>
1

> <PUBCHEM_CACTVS_COMPLEXITY>
702

> <PUBCHEM_CACTVS_HBOND_ACCEPTOR>
5

> <PUBCHEM_CACTVS_HBOND_DONOR>
2

> <PUBCHEM_CACTVS_ROTATABLE_BOND>
5

> <PUBCHEM_CACTVS_SUBSKEYS>
AAADceB7MQAAAAAAAAAAAAAAAAAAAWLAAAA8YMEAAAAAAFgB9AAAHwAQAAAADQzhng4wzvPJlACoAyRiXACCiCAhIiAImSA/7JkPJuLEsZuPOirm1Bna6Aew0MMOgAAAAgACUAAQAAQEAASgAAAAAAAAAA==

> <PUBCHEM_IUPAC_OPENEYE_NAME>
7-[[1-[(6-fluoro-2,3,4,9-tetrahydro-1H-carbazol-3-yl)methyl]-4-piperidyl]methoxy]-3H-1,3-benzoxazol-2-one

> <PUBCHEM_IUPAC_CAS_NAME>
7-[[1-[(6-fluoro-2,3,4,9-tetrahydro-1H-carbazol-3-yl)methyl]-4-piperidinyl]methoxy]-3H-1,3-benzoxazol-2-one

> <PUBCHEM_IUPAC_NAME_MARKUP>
7-[[1-[(6-fluoro-2,3,4,9-tetrahydro-1<I>H</I>-carbazol-3-yl)methyl]piperidin-4-yl]methoxy]-3<I>H</I>-1,3-benzoxazol-2-one

> <PUBCHEM_IUPAC_NAME>
7-[[1-[(6-fluoro-2,3,4,9-tetrahydro-1H-carbazol-3-yl)methyl]piperidin-4-yl]methoxy]-3H-1,3-benzoxazol-2-one

> <PUBCHEM_IUPAC_SYSTEMATIC_NAME>
7-[[1-[(6-fluoranyl-2,3,4,9-tetrahydro-1H-carbazol-3-yl)methyl]piperidin-4-yl]methoxy]-3H-1,3-benzoxazol-2-one

> <PUBCHEM_IUPAC_TRADITIONAL_NAME>
7-[[1-[(6-fluoro-2,3,4,9-tetrahydro-1H-carbazol-3-yl)methyl]-4-piperidyl]methoxy]-3H-1,3-benzoxazol-2-one

> <PUBCHEM_IUPAC_INCHI>
InChI=1S/C26H28FN3O3/c27-18-5-7-22-20(13-18)19-12-17(4-6-21(19)28-22)14-30-10-8-16(9-11-30)15-32-24-3-1-2-23-25(24)33-26(31)29-23/h1-3,5,7,13,16-17,28H,4,6,8-12,14-15H2,(H,29,31)

> <PUBCHEM_IUPAC_INCHIKEY>
WAFDZIYPGQIZQE-UHFFFAOYSA-N

> <PUBCHEM_XLOGP3_AA>
4.8

> <PUBCHEM_EXACT_MASS>
449.21146993

> <PUBCHEM_MOLECULAR_FORMULA>
C26H28FN3O3

> <PUBCHEM_MOLECULAR_WEIGHT>
449.5

> <PUBCHEM_OPENEYE_CAN_SMILES>
C1CC2=C(CC1CN3CCC(CC3)COC4=CC=CC5=C4OC(=O)N5)C6=C(N2)C=CC(=C6)F

> <PUBCHEM_OPENEYE_ISO_SMILES>
C1CC2=C(CC1CN3CCC(CC3)COC4=CC=CC5=C4OC(=O)N5)C6=C(N2)C=CC(=C6)F

> <PUBCHEM_CACTVS_TPSA>
66.6

> <PUBCHEM_MONOISOTOPIC_WEIGHT>
449.21146993

> <PUBCHEM_TOTAL_CHARGE>
0

> <PUBCHEM_HEAVY_ATOM_COUNT>
33

> <PUBCHEM_ATOM_DEF_STEREO_COUNT>
0

> <PUBCHEM_ATOM_UDEF_STEREO_COUNT>
1

> <PUBCHEM_BOND_DEF_STEREO_COUNT>
0

> <PUBCHEM_BOND_UDEF_STEREO_COUNT>
0

> <PUBCHEM_ISOTOPIC_ATOM_COUNT>
0

> <PUBCHEM_COMPONENT_COUNT>
1

> <PUBCHEM_CACTVS_TAUTO_COUNT>
-1

> <PUBCHEM_COORDINATE_TYPE>
1
5
255

> <PUBCHEM_BONDANNOTATIONS>
18  19  8
18  21  8
21  22  8
21  23  8
22  24  8
23  25  8
24  26  8
25  26  8
27  28  8
27  29  8
28  30  8
29  31  8
3  28  8
3  33  8
30  32  8
31  32  8
6  19  8
6  22  8
7  30  8
7  33  8
8  9  3

$$$$
