44253016
  -OEChem-09292322482D

 47 50  0     0  0  0  0  0  0999 V2000
    6.2619   -2.5569    0.0000 O   0  0  0  0  0  0  0  0  0  0  0  0
    5.6103    1.0994    0.0000 N   0  0  0  0  0  0  0  0  0  0  0  0
    4.6783   -1.7522    0.0000 N   0  0  0  0  0  0  0  0  0  0  0  0
    4.6783   -3.3616    0.0000 N   0  0  0  0  0  0  0  0  0  0  0  0
    5.9209    2.0499    0.0000 C   0  0  0  0  0  0  0  0  0  0  0  0
    4.9889   -0.8016    0.0000 C   0  0  0  0  0  0  0  0  0  0  0  0
    4.6318    0.8932    0.0000 C   0  0  0  0  0  0  0  0  0  0  0  0
    6.2781    0.3551    0.0000 C   0  0  0  0  0  0  0  0  0  0  0  0
    6.8994    2.2561    0.0000 C   0  0  0  0  0  0  0  0  0  0  0  0
    5.2531    2.7942    0.0000 C   0  0  0  0  0  0  0  0  0  0  0  0
    4.3211   -0.0573    0.0000 C   0  0  0  0  0  0  0  0  0  0  0  0
    5.9674   -0.5954    0.0000 C   0  0  0  0  0  0  0  0  0  0  0  0
    7.2101    3.2066    0.0000 C   0  0  0  0  0  0  0  0  0  0  0  0
    5.5637    3.7447    0.0000 C   0  0  0  0  0  0  0  0  0  0  0  0
    6.5422    3.9510    0.0000 C   0  0  0  0  0  0  0  0  0  0  0  0
    3.7320   -2.0569    0.0000 C   0  0  0  0  0  0  0  0  0  0  0  0
    5.2619   -2.5569    0.0000 C   0  0  0  0  0  0  0  0  0  0  0  0
    3.7320   -3.0569    0.0000 C   0  0  0  0  0  0  0  0  0  0  0  0
    2.8660   -1.5569    0.0000 C   0  0  0  0  0  0  0  0  0  0  0  0
    2.8660   -3.5569    0.0000 C   0  0  0  0  0  0  0  0  0  0  0  0
    2.0000   -2.0569    0.0000 C   0  0  0  0  0  0  0  0  0  0  0  0
    2.0000   -3.0569    0.0000 C   0  0  0  0  0  0  0  0  0  0  0  0
    5.3142    1.9221    0.0000 H   0  0  0  0  0  0  0  0  0  0  0  0
    5.4030   -1.2631    0.0000 H   0  0  0  0  0  0  0  0  0  0  0  0
    4.6112    1.5128    0.0000 H   0  0  0  0  0  0  0  0  0  0  0  0
    4.0179    0.9805    0.0000 H   0  0  0  0  0  0  0  0  0  0  0  0
    6.8250    0.0631    0.0000 H   0  0  0  0  0  0  0  0  0  0  0  0
    6.6607    0.8430    0.0000 H   0  0  0  0  0  0  0  0  0  0  0  0
    6.9200    1.6365    0.0000 H   0  0  0  0  0  0  0  0  0  0  0  0
    7.5132    2.1688    0.0000 H   0  0  0  0  0  0  0  0  0  0  0  0
    4.7062    3.0862    0.0000 H   0  0  0  0  0  0  0  0  0  0  0  0
    4.8705    2.3063    0.0000 H   0  0  0  0  0  0  0  0  0  0  0  0
    3.7742    0.2347    0.0000 H   0  0  0  0  0  0  0  0  0  0  0  0
    3.9385   -0.5453    0.0000 H   0  0  0  0  0  0  0  0  0  0  0  0
    5.9880   -1.2151    0.0000 H   0  0  0  0  0  0  0  0  0  0  0  0
    6.5812   -0.6828    0.0000 H   0  0  0  0  0  0  0  0  0  0  0  0
    7.7570    2.9146    0.0000 H   0  0  0  0  0  0  0  0  0  0  0  0
    7.5926    3.6946    0.0000 H   0  0  0  0  0  0  0  0  0  0  0  0
    5.5432    4.3644    0.0000 H   0  0  0  0  0  0  0  0  0  0  0  0
    4.9499    3.8321    0.0000 H   0  0  0  0  0  0  0  0  0  0  0  0
    7.0686    4.2786    0.0000 H   0  0  0  0  0  0  0  0  0  0  0  0
    6.3110    4.5262    0.0000 H   0  0  0  0  0  0  0  0  0  0  0  0
    4.8709   -3.9510    0.0000 H   0  0  0  0  0  0  0  0  0  0  0  0
    2.8660   -0.9369    0.0000 H   0  0  0  0  0  0  0  0  0  0  0  0
    2.8660   -4.1769    0.0000 H   0  0  0  0  0  0  0  0  0  0  0  0
    1.4631   -1.7469    0.0000 H   0  0  0  0  0  0  0  0  0  0  0  0
    1.4631   -3.3669    0.0000 H   0  0  0  0  0  0  0  0  0  0  0  0
  1 17  2  0  0  0  0
  2  5  1  0  0  0  0
  2  7  1  0  0  0  0
  2  8  1  0  0  0  0
  3  6  1  0  0  0  0
  3 16  1  0  0  0  0
  3 17  1  0  0  0  0
  4 17  1  0  0  0  0
  4 18  1  0  0  0  0
  4 43  1  0  0  0  0
  5  9  1  0  0  0  0
  5 10  1  0  0  0  0
  5 23  1  0  0  0  0
  6 11  1  0  0  0  0
  6 12  1  0  0  0  0
  6 24  1  0  0  0  0
  7 11  1  0  0  0  0
  7 25  1  0  0  0  0
  7 26  1  0  0  0  0
  8 12  1  0  0  0  0
  8 27  1  0  0  0  0
  8 28  1  0  0  0  0
  9 13  1  0  0  0  0
  9 29  1  0  0  0  0
  9 30  1  0  0  0  0
 10 14  1  0  0  0  0
 10 31  1  0  0  0  0
 10 32  1  0  0  0  0
 11 33  1  0  0  0  0
 11 34  1  0  0  0  0
 12 35  1  0  0  0  0
 12 36  1  0  0  0  0
 13 15  1  0  0  0  0
 13 37  1  0  0  0  0
 13 38  1  0  0  0  0
 14 15  1  0  0  0  0
 14 39  1  0  0  0  0
 14 40  1  0  0  0  0
 15 41  1  0  0  0  0
 15 42  1  0  0  0  0
 16 18  1  0  0  0  0
 16 19  2  0  0  0  0
 18 20  2  0  0  0  0
 19 21  1  0  0  0  0
 19 44  1  0  0  0  0
 20 22  1  0  0  0  0
 20 45  1  0  0  0  0
 21 22  2  0  0  0  0
 21 46  1  0  0  0  0
 22 47  1  0  0  0  0
M  END
> <PUBCHEM_COMPOUND_CID>
44253016

> <PUBCHEM_COMPOUND_CANONICALIZED>
1

> <PUBCHEM_CACTVS_COMPLEXITY>
399

> <PUBCHEM_CACTVS_HBOND_ACCEPTOR>
2

> <PUBCHEM_CACTVS_HBOND_DONOR>
1

> <PUBCHEM_CACTVS_ROTATABLE_BOND>
2

> <PUBCHEM_CACTVS_SUBSKEYS>
AAADceB7IAAAAAAAAAAAAAAAAAAAAWAAAAA8YIAAAAAAAFgBAAAAHgAQAAAACCjBEAQxwIPAAACIACRCUACCAAAhAgAIiAAIdIiIYCLA0ZGUIAholgLIyCcQAAAAAAAAAAAAACAAAAAAAAAAQAAAAAAAAA==

> <PUBCHEM_IUPAC_OPENEYE_NAME>
3-(1-cyclohexyl-4-piperidyl)-1H-benzimidazol-2-one

> <PUBCHEM_IUPAC_CAS_NAME>
3-(1-cyclohexyl-4-piperidinyl)-1H-benzimidazol-2-one

> <PUBCHEM_IUPAC_NAME_MARKUP>
3-(1-cyclohexylpiperidin-4-yl)-1<I>H</I>-benzimidazol-2-one

> <PUBCHEM_IUPAC_NAME>
3-(1-cyclohexylpiperidin-4-yl)-1H-benzimidazol-2-one

> <PUBCHEM_IUPAC_SYSTEMATIC_NAME>
3-(1-cyclohexylpiperidin-4-yl)-1H-benzimidazol-2-one

> <PUBCHEM_IUPAC_TRADITIONAL_NAME>
3-(1-cyclohexyl-4-piperidyl)-1H-benzimidazol-2-one

> <PUBCHEM_IUPAC_INCHI>
InChI=1S/C18H25N3O/c22-18-19-16-8-4-5-9-17(16)21(18)15-10-12-20(13-11-15)14-6-2-1-3-7-14/h4-5,8-9,14-15H,1-3,6-7,10-13H2,(H,19,22)

> <PUBCHEM_IUPAC_INCHIKEY>
VSWSLQBTTUYKSP-UHFFFAOYSA-N

> <PUBCHEM_XLOGP3>
3.8

> <PUBCHEM_EXACT_MASS>
299.199762429

> <PUBCHEM_MOLECULAR_FORMULA>
C18H25N3O

> <PUBCHEM_MOLECULAR_WEIGHT>
299.4

> <PUBCHEM_OPENEYE_CAN_SMILES>
C1CCC(CC1)N2CCC(CC2)N3C4=CC=CC=C4NC3=O

> <PUBCHEM_OPENEYE_ISO_SMILES>
C1CCC(CC1)N2CCC(CC2)N3C4=CC=CC=C4NC3=O

> <PUBCHEM_CACTVS_TPSA>
35.6

> <PUBCHEM_MONOISOTOPIC_WEIGHT>
299.199762429

> <PUBCHEM_TOTAL_CHARGE>
0

> <PUBCHEM_HEAVY_ATOM_COUNT>
22

> <PUBCHEM_ATOM_DEF_STEREO_COUNT>
0

> <PUBCHEM_ATOM_UDEF_STEREO_COUNT>
0

> <PUBCHEM_BOND_DEF_STEREO_COUNT>
0

> <PUBCHEM_BOND_UDEF_STEREO_COUNT>
0

> <PUBCHEM_ISOTOPIC_ATOM_COUNT>
0

> <PUBCHEM_COMPONENT_COUNT>
1

> <PUBCHEM_CACTVS_TAUTO_COUNT>
-1

> <PUBCHEM_COORDINATE_TYPE>
1
5
255

> <PUBCHEM_BONDANNOTATIONS>
16  18  8
16  19  8
18  20  8
19  21  8
20  22  8
21  22  8
3  16  8
3  17  8
4  17  8
4  18  8

$$$$
