121418441
  -OEChem-09292322012D

 45 47  0     1  0  0  0  0  0999 V2000
    2.8660   -2.6216    0.0000 Cl  0  0  0  0  0  0  0  0  0  0  0  0
    2.8660    1.3784    0.0000 O   0  0  0  0  0  0  0  0  0  0  0  0
    7.6475    0.1911    0.0000 O   0  0  0  0  0  0  0  0  0  0  0  0
    5.2102    1.2203    0.0000 N   0  0  3  0  0  0  0  0  0  0  0  0
    3.7320    1.8784    0.0000 C   0  0  3  0  0  0  0  0  0  0  0  0
    4.4012    2.6216    0.0000 C   0  0  0  0  0  0  0  0  0  0  0  0
    4.2320    1.0124    0.0000 C   0  0  0  0  0  0  0  0  0  0  0  0
    5.3147    2.2148    0.0000 C   0  0  0  0  0  0  0  0  0  0  0  0
    2.9889    2.5476    0.0000 C   0  0  0  0  0  0  0  0  0  0  0  0
    5.9533    0.5512    0.0000 C   0  0  0  0  0  0  0  0  0  0  0  0
    6.9044    0.8602    0.0000 C   0  0  0  0  0  0  0  0  0  0  0  0
    2.8660    0.3784    0.0000 C   0  0  0  0  0  0  0  0  0  0  0  0
    2.0000   -0.1216    0.0000 C   0  0  0  0  0  0  0  0  0  0  0  0
    3.7320   -0.1216    0.0000 C   0  0  0  0  0  0  0  0  0  0  0  0
    8.5986    0.5001    0.0000 C   0  0  0  0  0  0  0  0  0  0  0  0
    2.0000   -1.1216    0.0000 C   0  0  0  0  0  0  0  0  0  0  0  0
    3.7320   -1.1216    0.0000 C   0  0  0  0  0  0  0  0  0  0  0  0
    2.8660   -1.6216    0.0000 C   0  0  0  0  0  0  0  0  0  0  0  0
    8.8065    1.4782    0.0000 C   0  0  0  0  0  0  0  0  0  0  0  0
    9.3418   -0.1690    0.0000 C   0  0  0  0  0  0  0  0  0  0  0  0
    9.7576    1.7872    0.0000 C   0  0  0  0  0  0  0  0  0  0  0  0
   10.2928    0.1400    0.0000 C   0  0  0  0  0  0  0  0  0  0  0  0
   10.5007    1.1181    0.0000 C   0  0  0  0  0  0  0  0  0  0  0  0
    4.7112    3.1585    0.0000 H   0  0  0  0  0  0  0  0  0  0  0  0
    3.8996    2.9860    0.0000 H   0  0  0  0  0  0  0  0  0  0  0  0
    3.6656    0.7602    0.0000 H   0  0  0  0  0  0  0  0  0  0  0  0
    4.4236    0.4227    0.0000 H   0  0  0  0  0  0  0  0  0  0  0  0
    5.9212    2.0859    0.0000 H   0  0  0  0  0  0  0  0  0  0  0  0
    5.5063    2.8045    0.0000 H   0  0  0  0  0  0  0  0  0  0  0  0
    3.4038    3.0083    0.0000 H   0  0  0  0  0  0  0  0  0  0  0  0
    2.5282    2.9624    0.0000 H   0  0  0  0  0  0  0  0  0  0  0  0
    2.5740    2.0868    0.0000 H   0  0  0  0  0  0  0  0  0  0  0  0
    5.4648    0.1695    0.0000 H   0  0  0  0  0  0  0  0  0  0  0  0
    6.2444    0.0038    0.0000 H   0  0  0  0  0  0  0  0  0  0  0  0
    7.3930    1.2419    0.0000 H   0  0  0  0  0  0  0  0  0  0  0  0
    6.6133    1.4076    0.0000 H   0  0  0  0  0  0  0  0  0  0  0  0
    1.4631    0.1884    0.0000 H   0  0  0  0  0  0  0  0  0  0  0  0
    4.2690    0.1884    0.0000 H   0  0  0  0  0  0  0  0  0  0  0  0
    1.4631   -1.4316    0.0000 H   0  0  0  0  0  0  0  0  0  0  0  0
    4.2690   -1.4316    0.0000 H   0  0  0  0  0  0  0  0  0  0  0  0
    8.3458    1.8931    0.0000 H   0  0  0  0  0  0  0  0  0  0  0  0
    9.2128   -0.7755    0.0000 H   0  0  0  0  0  0  0  0  0  0  0  0
    9.8865    2.3937    0.0000 H   0  0  0  0  0  0  0  0  0  0  0  0
   10.7536   -0.2749    0.0000 H   0  0  0  0  0  0  0  0  0  0  0  0
   11.0904    1.3097    0.0000 H   0  0  0  0  0  0  0  0  0  0  0  0
  1 18  1  0  0  0  0
  2  5  1  0  0  0  0
  2 12  1  0  0  0  0
  3 11  1  0  0  0  0
  3 15  1  0  0  0  0
  4  7  1  0  0  0  0
  4  8  1  0  0  0  0
  4 10  1  0  0  0  0
  5  6  1  0  0  0  0
  5  7  1  0  0  0  0
  5  9  1  0  0  0  0
  6  8  1  0  0  0  0
  6 24  1  0  0  0  0
  6 25  1  0  0  0  0
  7 26  1  0  0  0  0
  7 27  1  0  0  0  0
  8 28  1  0  0  0  0
  8 29  1  0  0  0  0
  9 30  1  0  0  0  0
  9 31  1  0  0  0  0
  9 32  1  0  0  0  0
 10 11  1  0  0  0  0
 10 33  1  0  0  0  0
 10 34  1  0  0  0  0
 11 35  1  0  0  0  0
 11 36  1  0  0  0  0
 12 13  2  0  0  0  0
 12 14  1  0  0  0  0
 13 16  1  0  0  0  0
 13 37  1  0  0  0  0
 14 17  2  0  0  0  0
 14 38  1  0  0  0  0
 15 19  2  0  0  0  0
 15 20  1  0  0  0  0
 16 18  2  0  0  0  0
 16 39  1  0  0  0  0
 17 18  1  0  0  0  0
 17 40  1  0  0  0  0
 19 21  1  0  0  0  0
 19 41  1  0  0  0  0
 20 22  2  0  0  0  0
 20 42  1  0  0  0  0
 21 23  2  0  0  0  0
 21 43  1  0  0  0  0
 22 23  1  0  0  0  0
 22 44  1  0  0  0  0
 23 45  1  0  0  0  0
M  END
> <PUBCHEM_COMPOUND_CID>
121418441

> <PUBCHEM_COMPOUND_CANONICALIZED>
1

> <PUBCHEM_CACTVS_COMPLEXITY>
353

> <PUBCHEM_CACTVS_HBOND_ACCEPTOR>
3

> <PUBCHEM_CACTVS_HBOND_DONOR>
0

> <PUBCHEM_CACTVS_ROTATABLE_BOND>
6

> <PUBCHEM_CACTVS_SUBSKEYS>
AAADceB6MAAEAAAAAAAAAAAAAAAAAWAAAAAwYAAAAAAAAAABQAAAHgIAAAAADEbhkCYyBoMABACAACBCAAACCAAgJQAIiAAOCogOJiKFsxqHOCCmwBGYqAeAQAAIACAAAAAAAAAAQAAAAAAAAAAAAAAAAA==

> <PUBCHEM_IUPAC_OPENEYE_NAME>
3-(4-chlorophenoxy)-3-methyl-1-(2-phenoxyethyl)pyrrolidine

> <PUBCHEM_IUPAC_CAS_NAME>
3-(4-chlorophenoxy)-3-methyl-1-(2-phenoxyethyl)pyrrolidine

> <PUBCHEM_IUPAC_NAME_MARKUP>
3-(4-chlorophenoxy)-3-methyl-1-(2-phenoxyethyl)pyrrolidine

> <PUBCHEM_IUPAC_NAME>
3-(4-chlorophenoxy)-3-methyl-1-(2-phenoxyethyl)pyrrolidine

> <PUBCHEM_IUPAC_SYSTEMATIC_NAME>
3-(4-chloranylphenoxy)-3-methyl-1-(2-phenoxyethyl)pyrrolidine

> <PUBCHEM_IUPAC_TRADITIONAL_NAME>
3-(4-chlorophenoxy)-3-methyl-1-(2-phenoxyethyl)pyrrolidine

> <PUBCHEM_IUPAC_INCHI>
InChI=1S/C19H22ClNO2/c1-19(23-18-9-7-16(20)8-10-18)11-12-21(15-19)13-14-22-17-5-3-2-4-6-17/h2-10H,11-15H2,1H3

> <PUBCHEM_IUPAC_INCHIKEY>
SHXNMYNFGRHTQN-UHFFFAOYSA-N

> <PUBCHEM_XLOGP3_AA>
4.6

> <PUBCHEM_EXACT_MASS>
331.1339066

> <PUBCHEM_MOLECULAR_FORMULA>
C19H22ClNO2

> <PUBCHEM_MOLECULAR_WEIGHT>
331.8

> <PUBCHEM_OPENEYE_CAN_SMILES>
CC1(CCN(C1)CCOC2=CC=CC=C2)OC3=CC=C(C=C3)Cl

> <PUBCHEM_OPENEYE_ISO_SMILES>
CC1(CCN(C1)CCOC2=CC=CC=C2)OC3=CC=C(C=C3)Cl

> <PUBCHEM_CACTVS_TPSA>
21.7

> <PUBCHEM_MONOISOTOPIC_WEIGHT>
331.1339066

> <PUBCHEM_TOTAL_CHARGE>
0

> <PUBCHEM_HEAVY_ATOM_COUNT>
23

> <PUBCHEM_ATOM_DEF_STEREO_COUNT>
0

> <PUBCHEM_ATOM_UDEF_STEREO_COUNT>
1

> <PUBCHEM_BOND_DEF_STEREO_COUNT>
0

> <PUBCHEM_BOND_UDEF_STEREO_COUNT>
0

> <PUBCHEM_ISOTOPIC_ATOM_COUNT>
0

> <PUBCHEM_COMPONENT_COUNT>
1

> <PUBCHEM_CACTVS_TAUTO_COUNT>
-1

> <PUBCHEM_COORDINATE_TYPE>
1
5
255

> <PUBCHEM_BONDANNOTATIONS>
12  13  8
12  14  8
13  16  8
14  17  8
15  19  8
15  20  8
16  18  8
17  18  8
19  21  8
20  22  8
21  23  8
22  23  8
5  9  3

$$$$
