164622973
  -OEChem-09292322432D

 56 59  0     1  0  0  0  0  0999 V2000
    2.0000    1.6714    0.0000 Cl  0  0  0  0  0  0  0  0  0  0  0  0
    5.8550    4.4267    0.0000 O   0  0  0  0  0  0  0  0  0  0  0  0
    8.3459   -1.0810    0.0000 N   0  0  0  0  0  0  0  0  0  0  0  0
    9.9639   -2.2566    0.0000 N   0  0  0  0  0  0  0  0  0  0  0  0
   11.6865   -2.4376    0.0000 N   0  0  0  0  0  0  0  0  0  0  0  0
    6.1279    2.6714    0.0000 C   0  0  3  0  0  0  0  0  0  0  0  0
    6.9369    2.0836    0.0000 C   0  0  0  0  0  0  0  0  0  0  0  0
    5.5443    1.8667    0.0000 C   0  0  0  0  0  0  0  0  0  0  0  0
    6.8324    1.0891    0.0000 C   0  0  0  0  0  0  0  0  0  0  0  0
    5.5443    3.4761    0.0000 C   0  0  0  0  0  0  0  0  0  0  0  0
    4.5981    2.1714    0.0000 C   0  0  0  0  0  0  0  0  0  0  0  0
    7.6414    0.5013    0.0000 C   0  0  0  0  0  0  0  0  0  0  0  0
    6.9369    3.2592    0.0000 C   0  0  0  0  0  0  0  0  0  0  0  0
    4.5981    3.1714    0.0000 C   0  0  0  0  0  0  0  0  0  0  0  0
    7.5369   -0.4932    0.0000 C   0  0  0  0  0  0  0  0  0  0  0  0
    8.2414   -2.0755    0.0000 C   0  0  0  0  0  0  0  0  0  0  0  0
    9.2594   -0.6743    0.0000 C   0  0  0  0  0  0  0  0  0  0  0  0
    9.0504   -2.6633    0.0000 C   0  0  0  0  0  0  0  0  0  0  0  0
   10.0685   -1.2620    0.0000 C   0  0  0  0  0  0  0  0  0  0  0  0
    3.7320    1.6714    0.0000 C   0  0  0  0  0  0  0  0  0  0  0  0
    3.7320    3.6714    0.0000 C   0  0  0  0  0  0  0  0  0  0  0  0
    2.8660    2.1714    0.0000 C   0  0  0  0  0  0  0  0  0  0  0  0
    2.8660    3.1714    0.0000 C   0  0  0  0  0  0  0  0  0  0  0  0
   10.7730   -2.8444    0.0000 C   0  0  0  0  0  0  0  0  0  0  0  0
   10.6684   -3.8389    0.0000 C   0  0  0  0  0  0  0  0  0  0  0  0
   11.4774   -4.4267    0.0000 C   0  0  0  0  0  0  0  0  0  0  0  0
   12.4955   -3.0254    0.0000 C   0  0  0  0  0  0  0  0  0  0  0  0
   12.3910   -4.0199    0.0000 C   0  0  0  0  0  0  0  0  0  0  0  0
    7.5329    1.9127    0.0000 H   0  0  0  0  0  0  0  0  0  0  0  0
    7.2087    2.6409    0.0000 H   0  0  0  0  0  0  0  0  0  0  0  0
    5.2933    1.2998    0.0000 H   0  0  0  0  0  0  0  0  0  0  0  0
    6.0817    1.5574    0.0000 H   0  0  0  0  0  0  0  0  0  0  0  0
    6.2364    1.2600    0.0000 H   0  0  0  0  0  0  0  0  0  0  0  0
    6.5606    0.5318    0.0000 H   0  0  0  0  0  0  0  0  0  0  0  0
    8.2374    0.3304    0.0000 H   0  0  0  0  0  0  0  0  0  0  0  0
    7.9132    1.0586    0.0000 H   0  0  0  0  0  0  0  0  0  0  0  0
    7.3014    2.7576    0.0000 H   0  0  0  0  0  0  0  0  0  0  0  0
    7.4385    3.6236    0.0000 H   0  0  0  0  0  0  0  0  0  0  0  0
    6.5725    3.7608    0.0000 H   0  0  0  0  0  0  0  0  0  0  0  0
    6.9409   -0.3223    0.0000 H   0  0  0  0  0  0  0  0  0  0  0  0
    7.2651   -1.0505    0.0000 H   0  0  0  0  0  0  0  0  0  0  0  0
    7.6454   -1.9046    0.0000 H   0  0  0  0  0  0  0  0  0  0  0  0
    7.9696   -2.6328    0.0000 H   0  0  0  0  0  0  0  0  0  0  0  0
    9.7054   -0.2436    0.0000 H   0  0  0  0  0  0  0  0  0  0  0  0
    8.9127   -0.1603    0.0000 H   0  0  0  0  0  0  0  0  0  0  0  0
    8.6044   -3.0940    0.0000 H   0  0  0  0  0  0  0  0  0  0  0  0
    9.3971   -3.1773    0.0000 H   0  0  0  0  0  0  0  0  0  0  0  0
   10.6644   -1.4329    0.0000 H   0  0  0  0  0  0  0  0  0  0  0  0
   10.3403   -0.7048    0.0000 H   0  0  0  0  0  0  0  0  0  0  0  0
    3.7320    1.0514    0.0000 H   0  0  0  0  0  0  0  0  0  0  0  0
    3.7320    4.2914    0.0000 H   0  0  0  0  0  0  0  0  0  0  0  0
    2.3291    3.4814    0.0000 H   0  0  0  0  0  0  0  0  0  0  0  0
   10.1020   -4.0910    0.0000 H   0  0  0  0  0  0  0  0  0  0  0  0
   11.4126   -5.0433    0.0000 H   0  0  0  0  0  0  0  0  0  0  0  0
   13.0619   -2.7732    0.0000 H   0  0  0  0  0  0  0  0  0  0  0  0
   12.8926   -4.3844    0.0000 H   0  0  0  0  0  0  0  0  0  0  0  0
  1 22  1  0  0  0  0
  2 10  2  0  0  0  0
  3 15  1  0  0  0  0
  3 16  1  0  0  0  0
  3 17  1  0  0  0  0
  4 18  1  0  0  0  0
  4 19  1  0  0  0  0
  4 24  1  0  0  0  0
  5 24  1  0  0  0  0
  5 27  2  0  0  0  0
  6  7  1  0  0  0  0
  6  8  1  0  0  0  0
  6 10  1  0  0  0  0
  6 13  1  0  0  0  0
  7  9  1  0  0  0  0
  7 29  1  0  0  0  0
  7 30  1  0  0  0  0
  8 11  1  0  0  0  0
  8 31  1  0  0  0  0
  8 32  1  0  0  0  0
  9 12  1  0  0  0  0
  9 33  1  0  0  0  0
  9 34  1  0  0  0  0
 10 14  1  0  0  0  0
 11 14  2  0  0  0  0
 11 20  1  0  0  0  0
 12 15  1  0  0  0  0
 12 35  1  0  0  0  0
 12 36  1  0  0  0  0
 13 37  1  0  0  0  0
 13 38  1  0  0  0  0
 13 39  1  0  0  0  0
 14 21  1  0  0  0  0
 15 40  1  0  0  0  0
 15 41  1  0  0  0  0
 16 18  1  0  0  0  0
 16 42  1  0  0  0  0
 16 43  1  0  0  0  0
 17 19  1  0  0  0  0
 17 44  1  0  0  0  0
 17 45  1  0  0  0  0
 18 46  1  0  0  0  0
 18 47  1  0  0  0  0
 19 48  1  0  0  0  0
 19 49  1  0  0  0  0
 20 22  2  0  0  0  0
 20 50  1  0  0  0  0
 21 23  2  0  0  0  0
 21 51  1  0  0  0  0
 22 23  1  0  0  0  0
 23 52  1  0  0  0  0
 24 25  2  0  0  0  0
 25 26  1  0  0  0  0
 25 53  1  0  0  0  0
 26 28  2  0  0  0  0
 26 54  1  0  0  0  0
 27 28  1  0  0  0  0
 27 55  1  0  0  0  0
 28 56  1  0  0  0  0
M  END
> <PUBCHEM_COMPOUND_CID>
164622973

> <PUBCHEM_COMPOUND_CANONICALIZED>
1

> <PUBCHEM_CACTVS_COMPLEXITY>
536

> <PUBCHEM_CACTVS_HBOND_ACCEPTOR>
4

> <PUBCHEM_CACTVS_HBOND_DONOR>
0

> <PUBCHEM_CACTVS_ROTATABLE_BOND>
6

> <PUBCHEM_CACTVS_SUBSKEYS>
AAADceB7IAAEAAAAAAAAAAAAAAAAAYAAAAA8WIAAAAAAAGABwAAAHgIAAAAADgbBmiQ/sJMIEACoArJ3ZACCgCk1ByAJ2CE4ZtiIYPLBn5GUIQhogALIyacYiMCPhAAAIAAQAAAIAABAACAAAQAACAAAAA==

> <PUBCHEM_IUPAC_OPENEYE_NAME>
5-chloro-2-methyl-2-[4-[4-(2-pyridyl)piperazin-1-yl]butyl]indan-1-one

> <PUBCHEM_IUPAC_CAS_NAME>
5-chloro-2-methyl-2-[4-[4-(2-pyridinyl)-1-piperazinyl]butyl]-3H-inden-1-one

> <PUBCHEM_IUPAC_NAME_MARKUP>
5-chloro-2-methyl-2-[4-(4-pyridin-2-ylpiperazin-1-yl)butyl]-3<I>H</I>-inden-1-one

> <PUBCHEM_IUPAC_NAME>
5-chloro-2-methyl-2-[4-(4-pyridin-2-ylpiperazin-1-yl)butyl]-3H-inden-1-one

> <PUBCHEM_IUPAC_SYSTEMATIC_NAME>
5-chloranyl-2-methyl-2-[4-(4-pyridin-2-ylpiperazin-1-yl)butyl]-3H-inden-1-one

> <PUBCHEM_IUPAC_TRADITIONAL_NAME>
5-chloro-2-methyl-2-[4-[4-(2-pyridyl)piperazino]butyl]indan-1-one

> <PUBCHEM_IUPAC_INCHI>
InChI=1S/C23H28ClN3O/c1-23(17-18-16-19(24)7-8-20(18)22(23)28)9-3-5-11-26-12-14-27(15-13-26)21-6-2-4-10-25-21/h2,4,6-8,10,16H,3,5,9,11-15,17H2,1H3

> <PUBCHEM_IUPAC_INCHIKEY>
RRLSYCFYLABDNF-UHFFFAOYSA-N

> <PUBCHEM_XLOGP3_AA>
4.7

> <PUBCHEM_EXACT_MASS>
397.1920902

> <PUBCHEM_MOLECULAR_FORMULA>
C23H28ClN3O

> <PUBCHEM_MOLECULAR_WEIGHT>
397.9

> <PUBCHEM_OPENEYE_CAN_SMILES>
CC1(CC2=C(C1=O)C=CC(=C2)Cl)CCCCN3CCN(CC3)C4=CC=CC=N4

> <PUBCHEM_OPENEYE_ISO_SMILES>
CC1(CC2=C(C1=O)C=CC(=C2)Cl)CCCCN3CCN(CC3)C4=CC=CC=N4

> <PUBCHEM_CACTVS_TPSA>
36.4

> <PUBCHEM_MONOISOTOPIC_WEIGHT>
397.1920902

> <PUBCHEM_TOTAL_CHARGE>
0

> <PUBCHEM_HEAVY_ATOM_COUNT>
28

> <PUBCHEM_ATOM_DEF_STEREO_COUNT>
0

> <PUBCHEM_ATOM_UDEF_STEREO_COUNT>
1

> <PUBCHEM_BOND_DEF_STEREO_COUNT>
0

> <PUBCHEM_BOND_UDEF_STEREO_COUNT>
0

> <PUBCHEM_ISOTOPIC_ATOM_COUNT>
0

> <PUBCHEM_COMPONENT_COUNT>
1

> <PUBCHEM_CACTVS_TAUTO_COUNT>
-1

> <PUBCHEM_COORDINATE_TYPE>
1
5
255

> <PUBCHEM_BONDANNOTATIONS>
11  14  8
11  20  8
14  21  8
20  22  8
21  23  8
22  23  8
24  25  8
25  26  8
26  28  8
27  28  8
5  24  8
5  27  8
6  13  3

$$$$
