11581237
  -OEChem-09292322282D

 45 48  0     0  0  0  0  0  0999 V2000
    2.0000   -3.0981    0.0000 Cl  0  0  0  0  0  0  0  0  0  0  0  0
    7.6279    2.2320    0.0000 O   0  0  0  0  0  0  0  0  0  0  0  0
    7.6279   -1.2320    0.0000 N   0  0  0  0  0  0  0  0  0  0  0  0
    8.6279    0.5000    0.0000 N   0  0  0  0  0  0  0  0  0  0  0  0
    5.5443   -1.2933    0.0000 N   0  0  0  0  0  0  0  0  0  0  0  0
    4.5981   -2.5981    0.0000 N   0  0  0  0  0  0  0  0  0  0  0  0
    3.7320   -3.0981    0.0000 N   0  0  0  0  0  0  0  0  0  0  0  0
    8.6279   -1.2320    0.0000 C   0  0  0  0  0  0  0  0  0  0  0  0
    7.1279   -0.3660    0.0000 C   0  0  0  0  0  0  0  0  0  0  0  0
    9.1279   -0.3660    0.0000 C   0  0  0  0  0  0  0  0  0  0  0  0
    7.6279    0.5000    0.0000 C   0  0  0  0  0  0  0  0  0  0  0  0
    7.1279   -2.0981    0.0000 C   0  0  0  0  0  0  0  0  0  0  0  0
    9.1279    1.3660    0.0000 C   0  0  0  0  0  0  0  0  0  0  0  0
    6.1279   -2.0981    0.0000 C   0  0  0  0  0  0  0  0  0  0  0  0
    8.6279    2.2320    0.0000 C   0  0  0  0  0  0  0  0  0  0  0  0
   10.1279    1.3660    0.0000 C   0  0  0  0  0  0  0  0  0  0  0  0
    5.5443   -2.9028    0.0000 C   0  0  0  0  0  0  0  0  0  0  0  0
    4.5981   -1.5981    0.0000 C   0  0  0  0  0  0  0  0  0  0  0  0
    9.1279    3.0981    0.0000 C   0  0  0  0  0  0  0  0  0  0  0  0
   10.6279    2.2320    0.0000 C   0  0  0  0  0  0  0  0  0  0  0  0
   10.1279    3.0981    0.0000 C   0  0  0  0  0  0  0  0  0  0  0  0
    3.7320   -1.0981    0.0000 C   0  0  0  0  0  0  0  0  0  0  0  0
    2.8660   -1.5981    0.0000 C   0  0  0  0  0  0  0  0  0  0  0  0
    2.8660   -2.5981    0.0000 C   0  0  0  0  0  0  0  0  0  0  0  0
    7.1279    3.0981    0.0000 C   0  0  0  0  0  0  0  0  0  0  0  0
    8.5202   -1.8426    0.0000 H   0  0  0  0  0  0  0  0  0  0  0  0
    9.2105   -1.4441    0.0000 H   0  0  0  0  0  0  0  0  0  0  0  0
    6.6530    0.0325    0.0000 H   0  0  0  0  0  0  0  0  0  0  0  0
    6.6530   -0.7646    0.0000 H   0  0  0  0  0  0  0  0  0  0  0  0
    9.6028   -0.7646    0.0000 H   0  0  0  0  0  0  0  0  0  0  0  0
    9.6028    0.0325    0.0000 H   0  0  0  0  0  0  0  0  0  0  0  0
    7.7356    1.1106    0.0000 H   0  0  0  0  0  0  0  0  0  0  0  0
    7.0453    0.7121    0.0000 H   0  0  0  0  0  0  0  0  0  0  0  0
    7.0202   -2.7087    0.0000 H   0  0  0  0  0  0  0  0  0  0  0  0
    7.7105   -2.3101    0.0000 H   0  0  0  0  0  0  0  0  0  0  0  0
   10.4379    0.8291    0.0000 H   0  0  0  0  0  0  0  0  0  0  0  0
    5.7369   -3.4921    0.0000 H   0  0  0  0  0  0  0  0  0  0  0  0
    8.8179    3.6350    0.0000 H   0  0  0  0  0  0  0  0  0  0  0  0
   11.2479    2.2320    0.0000 H   0  0  0  0  0  0  0  0  0  0  0  0
   10.4379    3.6350    0.0000 H   0  0  0  0  0  0  0  0  0  0  0  0
    3.7320   -0.4781    0.0000 H   0  0  0  0  0  0  0  0  0  0  0  0
    2.3291   -1.2881    0.0000 H   0  0  0  0  0  0  0  0  0  0  0  0
    7.6648    3.4081    0.0000 H   0  0  0  0  0  0  0  0  0  0  0  0
    6.8179    3.6350    0.0000 H   0  0  0  0  0  0  0  0  0  0  0  0
    6.5910    2.7881    0.0000 H   0  0  0  0  0  0  0  0  0  0  0  0
  1 24  1  0  0  0  0
  2 15  1  0  0  0  0
  2 25  1  0  0  0  0
  3  8  1  0  0  0  0
  3  9  1  0  0  0  0
  3 12  1  0  0  0  0
  4 10  1  0  0  0  0
  4 11  1  0  0  0  0
  4 13  1  0  0  0  0
  5 14  1  0  0  0  0
  5 18  2  0  0  0  0
  6  7  1  0  0  0  0
  6 17  1  0  0  0  0
  6 18  1  0  0  0  0
  7 24  2  0  0  0  0
  8 10  1  0  0  0  0
  8 26  1  0  0  0  0
  8 27  1  0  0  0  0
  9 11  1  0  0  0  0
  9 28  1  0  0  0  0
  9 29  1  0  0  0  0
 10 30  1  0  0  0  0
 10 31  1  0  0  0  0
 11 32  1  0  0  0  0
 11 33  1  0  0  0  0
 12 14  1  0  0  0  0
 12 34  1  0  0  0  0
 12 35  1  0  0  0  0
 13 15  1  0  0  0  0
 13 16  2  0  0  0  0
 14 17  2  0  0  0  0
 15 19  2  0  0  0  0
 16 20  1  0  0  0  0
 16 36  1  0  0  0  0
 17 37  1  0  0  0  0
 18 22  1  0  0  0  0
 19 21  1  0  0  0  0
 19 38  1  0  0  0  0
 20 21  2  0  0  0  0
 20 39  1  0  0  0  0
 21 40  1  0  0  0  0
 22 23  2  0  0  0  0
 22 41  1  0  0  0  0
 23 24  1  0  0  0  0
 23 42  1  0  0  0  0
 25 43  1  0  0  0  0
 25 44  1  0  0  0  0
 25 45  1  0  0  0  0
M  END
> <PUBCHEM_COMPOUND_CID>
11581237

> <PUBCHEM_COMPOUND_CANONICALIZED>
1

> <PUBCHEM_CACTVS_COMPLEXITY>
434

> <PUBCHEM_CACTVS_HBOND_ACCEPTOR>
5

> <PUBCHEM_CACTVS_HBOND_DONOR>
0

> <PUBCHEM_CACTVS_ROTATABLE_BOND>
4

> <PUBCHEM_CACTVS_SUBSKEYS>
AAADceB7oAAEAAAAAAAAAAAAAAAAAWAAAAA8WIAAAAAAAFgB8AAAHgIIAAAACA7BlyY/9p8IFACiATZnZACSjC8xt6Ad2CA/fpiObuLF+5uVsChsyBPY6CeQQAAAAAAAAAAAEAAAAAAAAAAgAAAAAAAAAA==

> <PUBCHEM_IUPAC_OPENEYE_NAME>
6-chloro-2-[[4-(2-methoxyphenyl)piperazin-1-yl]methyl]imidazo[1,2-b]pyridazine

> <PUBCHEM_IUPAC_CAS_NAME>
6-chloro-2-[[4-(2-methoxyphenyl)-1-piperazinyl]methyl]imidazo[1,2-b]pyridazine

> <PUBCHEM_IUPAC_NAME_MARKUP>
6-chloro-2-[[4-(2-methoxyphenyl)piperazin-1-yl]methyl]imidazo[1,2-b]pyridazine

> <PUBCHEM_IUPAC_NAME>
6-chloro-2-[[4-(2-methoxyphenyl)piperazin-1-yl]methyl]imidazo[1,2-b]pyridazine

> <PUBCHEM_IUPAC_SYSTEMATIC_NAME>
6-chloranyl-2-[[4-(2-methoxyphenyl)piperazin-1-yl]methyl]imidazo[1,2-b]pyridazine

> <PUBCHEM_IUPAC_TRADITIONAL_NAME>
6-chloro-2-[[4-(2-methoxyphenyl)piperazino]methyl]imidazo[1,2-b]pyridazine

> <PUBCHEM_IUPAC_INCHI>
InChI=1S/C18H20ClN5O/c1-25-16-5-3-2-4-15(16)23-10-8-22(9-11-23)12-14-13-24-18(20-14)7-6-17(19)21-24/h2-7,13H,8-12H2,1H3

> <PUBCHEM_IUPAC_INCHIKEY>
GSYFEKZSWFXBAB-UHFFFAOYSA-N

> <PUBCHEM_XLOGP3_AA>
2.7

> <PUBCHEM_EXACT_MASS>
357.1356380

> <PUBCHEM_MOLECULAR_FORMULA>
C18H20ClN5O

> <PUBCHEM_MOLECULAR_WEIGHT>
357.8

> <PUBCHEM_OPENEYE_CAN_SMILES>
COC1=CC=CC=C1N2CCN(CC2)CC3=CN4C(=N3)C=CC(=N4)Cl

> <PUBCHEM_OPENEYE_ISO_SMILES>
COC1=CC=CC=C1N2CCN(CC2)CC3=CN4C(=N3)C=CC(=N4)Cl

> <PUBCHEM_CACTVS_TPSA>
45.9

> <PUBCHEM_MONOISOTOPIC_WEIGHT>
357.1356380

> <PUBCHEM_TOTAL_CHARGE>
0

> <PUBCHEM_HEAVY_ATOM_COUNT>
25

> <PUBCHEM_ATOM_DEF_STEREO_COUNT>
0

> <PUBCHEM_ATOM_UDEF_STEREO_COUNT>
0

> <PUBCHEM_BOND_DEF_STEREO_COUNT>
0

> <PUBCHEM_BOND_UDEF_STEREO_COUNT>
0

> <PUBCHEM_ISOTOPIC_ATOM_COUNT>
0

> <PUBCHEM_COMPONENT_COUNT>
1

> <PUBCHEM_CACTVS_TAUTO_COUNT>
-1

> <PUBCHEM_COORDINATE_TYPE>
1
5
255

> <PUBCHEM_BONDANNOTATIONS>
13  15  8
13  16  8
14  17  8
15  19  8
16  20  8
18  22  8
19  21  8
20  21  8
22  23  8
23  24  8
5  14  8
5  18  8
6  17  8
6  18  8
6  7  8
7  24  8

$$$$
