127046818
  -OEChem-09292322472D

 67 70  0     0  0  0  0  0  0999 V2000
    8.4530   -3.0740    0.0000 S   0  0  0  0  0  0  0  0  0  0  0  0
    9.4035   -2.7633    0.0000 O   0  0  0  0  0  0  0  0  0  0  0  0
    7.5025   -3.3847    0.0000 O   0  0  0  0  0  0  0  0  0  0  0  0
    7.1962    4.1813    0.0000 O   0  0  0  0  0  0  0  0  0  0  0  0
    4.5981   -2.3187    0.0000 N   0  0  0  0  0  0  0  0  0  0  0  0
    2.8660   -3.3187    0.0000 N   0  0  0  0  0  0  0  0  0  0  0  0
    8.1424   -2.1235    0.0000 N   0  0  0  0  0  0  0  0  0  0  0  0
    6.3301   -2.3187    0.0000 N   0  0  0  0  0  0  0  0  0  0  0  0
    5.4641    4.1813    0.0000 N   0  0  0  0  0  0  0  0  0  0  0  0
    3.7320   -1.8187    0.0000 C   0  0  0  0  0  0  0  0  0  0  0  0
    4.5981   -3.3187    0.0000 C   0  0  0  0  0  0  0  0  0  0  0  0
    2.8660   -2.3187    0.0000 C   0  0  0  0  0  0  0  0  0  0  0  0
    3.7320   -3.8187    0.0000 C   0  0  0  0  0  0  0  0  0  0  0  0
    5.4641   -1.8187    0.0000 C   0  0  0  0  0  0  0  0  0  0  0  0
    7.1962   -1.8187    0.0000 C   0  0  0  0  0  0  0  0  0  0  0  0
    7.1962   -0.8187    0.0000 C   0  0  0  0  0  0  0  0  0  0  0  0
    8.7637   -4.0245    0.0000 C   0  0  0  0  0  0  0  0  0  0  0  0
    6.3301   -0.3187    0.0000 C   0  0  0  0  0  0  0  0  0  0  0  0
    5.4641   -0.8187    0.0000 C   0  0  0  0  0  0  0  0  0  0  0  0
    9.7422   -4.2307    0.0000 C   0  0  0  0  0  0  0  0  0  0  0  0
    2.0000   -3.8187    0.0000 C   0  0  0  0  0  0  0  0  0  0  0  0
    8.7260   -1.3187    0.0000 C   0  0  0  0  0  0  0  0  0  0  0  0
    8.1424   -0.5140    0.0000 C   0  0  0  0  0  0  0  0  0  0  0  0
    6.3301    0.6813    0.0000 C   0  0  0  0  0  0  0  0  0  0  0  0
   10.0529   -5.1813    0.0000 C   0  0  0  0  0  0  0  0  0  0  0  0
   10.4100   -3.4864    0.0000 C   0  0  0  0  0  0  0  0  0  0  0  0
    7.1962    1.1813    0.0000 C   0  0  0  0  0  0  0  0  0  0  0  0
    5.4641    1.1813    0.0000 C   0  0  0  0  0  0  0  0  0  0  0  0
    7.1962    2.1813    0.0000 C   0  0  0  0  0  0  0  0  0  0  0  0
    5.4641    2.1813    0.0000 C   0  0  0  0  0  0  0  0  0  0  0  0
    6.3301    2.6813    0.0000 C   0  0  0  0  0  0  0  0  0  0  0  0
    6.3301    3.6813    0.0000 C   0  0  0  0  0  0  0  0  0  0  0  0
    5.4641    5.1813    0.0000 C   0  0  0  0  0  0  0  0  0  0  0  0
    4.5981    3.6813    0.0000 C   0  0  0  0  0  0  0  0  0  0  0  0
    4.1306   -1.3438    0.0000 H   0  0  0  0  0  0  0  0  0  0  0  0
    3.3335   -1.3438    0.0000 H   0  0  0  0  0  0  0  0  0  0  0  0
    4.8101   -3.9014    0.0000 H   0  0  0  0  0  0  0  0  0  0  0  0
    5.2087   -3.2111    0.0000 H   0  0  0  0  0  0  0  0  0  0  0  0
    2.6540   -1.7361    0.0000 H   0  0  0  0  0  0  0  0  0  0  0  0
    2.2554   -2.4264    0.0000 H   0  0  0  0  0  0  0  0  0  0  0  0
    3.3335   -4.2937    0.0000 H   0  0  0  0  0  0  0  0  0  0  0  0
    4.1306   -4.2937    0.0000 H   0  0  0  0  0  0  0  0  0  0  0  0
    8.1499   -4.1119    0.0000 H   0  0  0  0  0  0  0  0  0  0  0  0
    8.7431   -4.6442    0.0000 H   0  0  0  0  0  0  0  0  0  0  0  0
    4.9272   -0.5087    0.0000 H   0  0  0  0  0  0  0  0  0  0  0  0
    9.5496   -3.6414    0.0000 H   0  0  0  0  0  0  0  0  0  0  0  0
    1.6900   -3.2818    0.0000 H   0  0  0  0  0  0  0  0  0  0  0  0
    1.4631   -4.1287    0.0000 H   0  0  0  0  0  0  0  0  0  0  0  0
    2.3100   -4.3557    0.0000 H   0  0  0  0  0  0  0  0  0  0  0  0
    9.3460   -1.3187    0.0000 H   0  0  0  0  0  0  0  0  0  0  0  0
    8.3350    0.0753    0.0000 H   0  0  0  0  0  0  0  0  0  0  0  0
    9.4635   -5.3739    0.0000 H   0  0  0  0  0  0  0  0  0  0  0  0
   10.2455   -5.7706    0.0000 H   0  0  0  0  0  0  0  0  0  0  0  0
   10.6422   -4.9886    0.0000 H   0  0  0  0  0  0  0  0  0  0  0  0
   10.8715   -3.9005    0.0000 H   0  0  0  0  0  0  0  0  0  0  0  0
   10.8241   -3.0250    0.0000 H   0  0  0  0  0  0  0  0  0  0  0  0
    9.9486   -3.0724    0.0000 H   0  0  0  0  0  0  0  0  0  0  0  0
    7.7331    0.8713    0.0000 H   0  0  0  0  0  0  0  0  0  0  0  0
    4.9272    0.8713    0.0000 H   0  0  0  0  0  0  0  0  0  0  0  0
    7.7331    2.4913    0.0000 H   0  0  0  0  0  0  0  0  0  0  0  0
    4.9272    2.4913    0.0000 H   0  0  0  0  0  0  0  0  0  0  0  0
    6.0841    5.1813    0.0000 H   0  0  0  0  0  0  0  0  0  0  0  0
    5.4641    5.8013    0.0000 H   0  0  0  0  0  0  0  0  0  0  0  0
    4.8441    5.1813    0.0000 H   0  0  0  0  0  0  0  0  0  0  0  0
    4.2881    4.2182    0.0000 H   0  0  0  0  0  0  0  0  0  0  0  0
    4.0611    3.3713    0.0000 H   0  0  0  0  0  0  0  0  0  0  0  0
    4.9081    3.1443    0.0000 H   0  0  0  0  0  0  0  0  0  0  0  0
  1  2  2  0  0  0  0
  1  3  2  0  0  0  0
  1  7  1  0  0  0  0
  1 17  1  0  0  0  0
  4 32  2  0  0  0  0
  5 10  1  0  0  0  0
  5 11  1  0  0  0  0
  5 14  1  0  0  0  0
  6 12  1  0  0  0  0
  6 13  1  0  0  0  0
  6 21  1  0  0  0  0
  7 15  1  0  0  0  0
  7 22  1  0  0  0  0
  8 14  2  0  0  0  0
  8 15  1  0  0  0  0
  9 32  1  0  0  0  0
  9 33  1  0  0  0  0
  9 34  1  0  0  0  0
 10 12  1  0  0  0  0
 10 35  1  0  0  0  0
 10 36  1  0  0  0  0
 11 13  1  0  0  0  0
 11 37  1  0  0  0  0
 11 38  1  0  0  0  0
 12 39  1  0  0  0  0
 12 40  1  0  0  0  0
 13 41  1  0  0  0  0
 13 42  1  0  0  0  0
 14 19  1  0  0  0  0
 15 16  2  0  0  0  0
 16 18  1  0  0  0  0
 16 23  1  0  0  0  0
 17 20  1  0  0  0  0
 17 43  1  0  0  0  0
 17 44  1  0  0  0  0
 18 19  2  0  0  0  0
 18 24  1  0  0  0  0
 19 45  1  0  0  0  0
 20 25  1  0  0  0  0
 20 26  1  0  0  0  0
 20 46  1  0  0  0  0
 21 47  1  0  0  0  0
 21 48  1  0  0  0  0
 21 49  1  0  0  0  0
 22 23  2  0  0  0  0
 22 50  1  0  0  0  0
 23 51  1  0  0  0  0
 24 27  2  0  0  0  0
 24 28  1  0  0  0  0
 25 52  1  0  0  0  0
 25 53  1  0  0  0  0
 25 54  1  0  0  0  0
 26 55  1  0  0  0  0
 26 56  1  0  0  0  0
 26 57  1  0  0  0  0
 27 29  1  0  0  0  0
 27 58  1  0  0  0  0
 28 30  2  0  0  0  0
 28 59  1  0  0  0  0
 29 31  2  0  0  0  0
 29 60  1  0  0  0  0
 30 31  1  0  0  0  0
 30 61  1  0  0  0  0
 31 32  1  0  0  0  0
 33 62  1  0  0  0  0
 33 63  1  0  0  0  0
 33 64  1  0  0  0  0
 34 65  1  0  0  0  0
 34 66  1  0  0  0  0
 34 67  1  0  0  0  0
M  END
> <PUBCHEM_COMPOUND_CID>
127046818

> <PUBCHEM_COMPOUND_CANONICALIZED>
1

> <PUBCHEM_CACTVS_COMPLEXITY>
798

> <PUBCHEM_CACTVS_HBOND_ACCEPTOR>
6

> <PUBCHEM_CACTVS_HBOND_DONOR>
0

> <PUBCHEM_CACTVS_ROTATABLE_BOND>
6

> <PUBCHEM_CACTVS_SUBSKEYS>
AAADcfB7sABAAAAAAAAAAAAAAAAAAWAAAAA8WIAAAAAAAFgB/AAAHgQAQAAADQDF2wS/sN8IEAKoAjN3dHDCgCk1AqAJ2CE4ZNiIaPLAnZGUIQhoggLIyacYiMCOwAAAAAAAAACAAAAAAAAAAAAAAAAAAA==

> <PUBCHEM_IUPAC_OPENEYE_NAME>
4-[1-isobutylsulfonyl-6-(4-methylpiperazin-1-yl)pyrrolo[2,3-b]pyridin-4-yl]-N,N-dimethyl-benzamide

> <PUBCHEM_IUPAC_CAS_NAME>
N,N-dimethyl-4-[6-(4-methyl-1-piperazinyl)-1-(2-methylpropylsulfonyl)-4-pyrrolo[2,3-b]pyridinyl]benzamide

> <PUBCHEM_IUPAC_NAME_MARKUP>
<I>N</I>,<I>N</I>-dimethyl-4-[6-(4-methylpiperazin-1-yl)-1-(2-methylpropylsulfonyl)pyrrolo[2,3-b]pyridin-4-yl]benzamide

> <PUBCHEM_IUPAC_NAME>
N,N-dimethyl-4-[6-(4-methylpiperazin-1-yl)-1-(2-methylpropylsulfonyl)pyrrolo[2,3-b]pyridin-4-yl]benzamide

> <PUBCHEM_IUPAC_SYSTEMATIC_NAME>
N,N-dimethyl-4-[6-(4-methylpiperazin-1-yl)-1-(2-methylpropylsulfonyl)pyrrolo[2,3-b]pyridin-4-yl]benzamide

> <PUBCHEM_IUPAC_TRADITIONAL_NAME>
4-[1-isobutylsulfonyl-6-(4-methylpiperazino)pyrrolo[2,3-b]pyridin-4-yl]-N,N-dimethyl-benzamide

> <PUBCHEM_IUPAC_INCHI>
InChI=1S/C25H33N5O3S/c1-18(2)17-34(32,33)30-11-10-21-22(19-6-8-20(9-7-19)25(31)27(3)4)16-23(26-24(21)30)29-14-12-28(5)13-15-29/h6-11,16,18H,12-15,17H2,1-5H3

> <PUBCHEM_IUPAC_INCHIKEY>
BRVSKBDIAQYZNZ-UHFFFAOYSA-N

> <PUBCHEM_XLOGP3_AA>
3.6

> <PUBCHEM_EXACT_MASS>
483.23041111

> <PUBCHEM_MOLECULAR_FORMULA>
C25H33N5O3S

> <PUBCHEM_MOLECULAR_WEIGHT>
483.6

> <PUBCHEM_OPENEYE_CAN_SMILES>
CC(C)CS(=O)(=O)N1C=CC2=C1N=C(C=C2C3=CC=C(C=C3)C(=O)N(C)C)N4CCN(CC4)C

> <PUBCHEM_OPENEYE_ISO_SMILES>
CC(C)CS(=O)(=O)N1C=CC2=C1N=C(C=C2C3=CC=C(C=C3)C(=O)N(C)C)N4CCN(CC4)C

> <PUBCHEM_CACTVS_TPSA>
87.1

> <PUBCHEM_MONOISOTOPIC_WEIGHT>
483.23041111

> <PUBCHEM_TOTAL_CHARGE>
0

> <PUBCHEM_HEAVY_ATOM_COUNT>
34

> <PUBCHEM_ATOM_DEF_STEREO_COUNT>
0

> <PUBCHEM_ATOM_UDEF_STEREO_COUNT>
0

> <PUBCHEM_BOND_DEF_STEREO_COUNT>
0

> <PUBCHEM_BOND_UDEF_STEREO_COUNT>
0

> <PUBCHEM_ISOTOPIC_ATOM_COUNT>
0

> <PUBCHEM_COMPONENT_COUNT>
1

> <PUBCHEM_CACTVS_TAUTO_COUNT>
-1

> <PUBCHEM_COORDINATE_TYPE>
1
5
255

> <PUBCHEM_BONDANNOTATIONS>
14  19  8
15  16  8
16  18  8
16  23  8
18  19  8
22  23  8
24  27  8
24  28  8
27  29  8
28  30  8
29  31  8
30  31  8
7  15  8
7  22  8
8  14  8
8  15  8

$$$$
