66559507
  -OEChem-09292321592D

 58 62  0     0  0  0  0  0  0999 V2000
    4.5981   -1.2673    0.0000 Cl  0  0  0  0  0  0  0  0  0  0  0  0
    2.8660   -2.2673    0.0000 Cl  0  0  0  0  0  0  0  0  0  0  0  0
   10.6603    0.2327    0.0000 O   0  0  0  0  0  0  0  0  0  0  0  0
   15.9224    0.2085    0.0000 O   0  0  0  0  0  0  0  0  0  0  0  0
    6.3301    1.7327    0.0000 N   0  0  0  0  0  0  0  0  0  0  0  0
    4.5981    0.7327    0.0000 N   0  0  0  0  0  0  0  0  0  0  0  0
   14.1523    0.1980    0.0000 N   0  0  0  0  0  0  0  0  0  0  0  0
    5.4641    2.2327    0.0000 C   0  0  0  0  0  0  0  0  0  0  0  0
    6.3301    0.7327    0.0000 C   0  0  0  0  0  0  0  0  0  0  0  0
    4.5981    1.7327    0.0000 C   0  0  0  0  0  0  0  0  0  0  0  0
    5.4641    0.2327    0.0000 C   0  0  0  0  0  0  0  0  0  0  0  0
    7.1962    2.2327    0.0000 C   0  0  0  0  0  0  0  0  0  0  0  0
    3.7320    0.2327    0.0000 C   0  0  0  0  0  0  0  0  0  0  0  0
    8.0622    1.7327    0.0000 C   0  0  0  0  0  0  0  0  0  0  0  0
    3.7320   -0.7673    0.0000 C   0  0  0  0  0  0  0  0  0  0  0  0
    2.8660    0.7327    0.0000 C   0  0  0  0  0  0  0  0  0  0  0  0
    8.9282    2.2327    0.0000 C   0  0  0  0  0  0  0  0  0  0  0  0
    8.0622    0.7327    0.0000 C   0  0  0  0  0  0  0  0  0  0  0  0
   14.1523    2.2673    0.0000 C   0  0  0  0  0  0  0  0  0  0  0  0
   13.2583    1.7327    0.0000 C   0  0  0  0  0  0  0  0  0  0  0  0
    9.7942    1.7327    0.0000 C   0  0  0  0  0  0  0  0  0  0  0  0
    8.9282    0.2327    0.0000 C   0  0  0  0  0  0  0  0  0  0  0  0
    2.8660   -1.2673    0.0000 C   0  0  0  0  0  0  0  0  0  0  0  0
    2.0000    0.2327    0.0000 C   0  0  0  0  0  0  0  0  0  0  0  0
    9.7942    0.7327    0.0000 C   0  0  0  0  0  0  0  0  0  0  0  0
   13.2583    0.7327    0.0000 C   0  0  0  0  0  0  0  0  0  0  0  0
   15.0583    1.7535    0.0000 C   0  0  0  0  0  0  0  0  0  0  0  0
    2.0000   -0.7673    0.0000 C   0  0  0  0  0  0  0  0  0  0  0  0
   11.5263    0.7327    0.0000 C   0  0  0  0  0  0  0  0  0  0  0  0
   12.3923    0.2327    0.0000 C   0  0  0  0  0  0  0  0  0  0  0  0
   12.3923    2.2327    0.0000 C   0  0  0  0  0  0  0  0  0  0  0  0
   15.0583    0.7119    0.0000 C   0  0  0  0  0  0  0  0  0  0  0  0
   11.5263    1.7327    0.0000 C   0  0  0  0  0  0  0  0  0  0  0  0
    5.8626    2.7076    0.0000 H   0  0  0  0  0  0  0  0  0  0  0  0
    5.0656    2.7076    0.0000 H   0  0  0  0  0  0  0  0  0  0  0  0
    6.5422    0.1501    0.0000 H   0  0  0  0  0  0  0  0  0  0  0  0
    6.9407    0.8403    0.0000 H   0  0  0  0  0  0  0  0  0  0  0  0
    4.3860    2.3153    0.0000 H   0  0  0  0  0  0  0  0  0  0  0  0
    3.9875    1.6250    0.0000 H   0  0  0  0  0  0  0  0  0  0  0  0
    5.0656   -0.2423    0.0000 H   0  0  0  0  0  0  0  0  0  0  0  0
    5.8626   -0.2423    0.0000 H   0  0  0  0  0  0  0  0  0  0  0  0
    7.5947    2.7076    0.0000 H   0  0  0  0  0  0  0  0  0  0  0  0
    6.7976    2.7076    0.0000 H   0  0  0  0  0  0  0  0  0  0  0  0
    2.8660    1.3527    0.0000 H   0  0  0  0  0  0  0  0  0  0  0  0
    8.9282    2.8527    0.0000 H   0  0  0  0  0  0  0  0  0  0  0  0
    7.5252    0.4227    0.0000 H   0  0  0  0  0  0  0  0  0  0  0  0
   14.5459    2.7464    0.0000 H   0  0  0  0  0  0  0  0  0  0  0  0
   13.7477    2.7371    0.0000 H   0  0  0  0  0  0  0  0  0  0  0  0
   10.3312    2.0427    0.0000 H   0  0  0  0  0  0  0  0  0  0  0  0
    8.9282   -0.3873    0.0000 H   0  0  0  0  0  0  0  0  0  0  0  0
    1.4631    0.5427    0.0000 H   0  0  0  0  0  0  0  0  0  0  0  0
   15.6692    1.6474    0.0000 H   0  0  0  0  0  0  0  0  0  0  0  0
   15.2674    2.3372    0.0000 H   0  0  0  0  0  0  0  0  0  0  0  0
    1.4631   -1.0773    0.0000 H   0  0  0  0  0  0  0  0  0  0  0  0
   12.3923   -0.3873    0.0000 H   0  0  0  0  0  0  0  0  0  0  0  0
   14.1451   -0.4220    0.0000 H   0  0  0  0  0  0  0  0  0  0  0  0
   12.3923    2.8527    0.0000 H   0  0  0  0  0  0  0  0  0  0  0  0
   10.9893    2.0427    0.0000 H   0  0  0  0  0  0  0  0  0  0  0  0
  1 15  1  0  0  0  0
  2 23  1  0  0  0  0
  3 25  1  0  0  0  0
  3 29  1  0  0  0  0
  4 32  2  0  0  0  0
  5  8  1  0  0  0  0
  5  9  1  0  0  0  0
  5 12  1  0  0  0  0
  6 10  1  0  0  0  0
  6 11  1  0  0  0  0
  6 13  1  0  0  0  0
  7 26  1  0  0  0  0
  7 32  1  0  0  0  0
  7 56  1  0  0  0  0
  8 10  1  0  0  0  0
  8 34  1  0  0  0  0
  8 35  1  0  0  0  0
  9 11  1  0  0  0  0
  9 36  1  0  0  0  0
  9 37  1  0  0  0  0
 10 38  1  0  0  0  0
 10 39  1  0  0  0  0
 11 40  1  0  0  0  0
 11 41  1  0  0  0  0
 12 14  1  0  0  0  0
 12 42  1  0  0  0  0
 12 43  1  0  0  0  0
 13 15  2  0  0  0  0
 13 16  1  0  0  0  0
 14 17  2  0  0  0  0
 14 18  1  0  0  0  0
 15 23  1  0  0  0  0
 16 24  2  0  0  0  0
 16 44  1  0  0  0  0
 17 21  1  0  0  0  0
 17 45  1  0  0  0  0
 18 22  2  0  0  0  0
 18 46  1  0  0  0  0
 19 20  1  0  0  0  0
 19 27  1  0  0  0  0
 19 47  1  0  0  0  0
 19 48  1  0  0  0  0
 20 26  2  0  0  0  0
 20 31  1  0  0  0  0
 21 25  2  0  0  0  0
 21 49  1  0  0  0  0
 22 25  1  0  0  0  0
 22 50  1  0  0  0  0
 23 28  2  0  0  0  0
 24 28  1  0  0  0  0
 24 51  1  0  0  0  0
 26 30  1  0  0  0  0
 27 32  1  0  0  0  0
 27 52  1  0  0  0  0
 27 53  1  0  0  0  0
 28 54  1  0  0  0  0
 29 30  2  0  0  0  0
 29 33  1  0  0  0  0
 30 55  1  0  0  0  0
 31 33  2  0  0  0  0
 31 57  1  0  0  0  0
 33 58  1  0  0  0  0
M  END
> <PUBCHEM_COMPOUND_CID>
66559507

> <PUBCHEM_COMPOUND_CANONICALIZED>
1

> <PUBCHEM_CACTVS_COMPLEXITY>
651

> <PUBCHEM_CACTVS_HBOND_ACCEPTOR>
4

> <PUBCHEM_CACTVS_HBOND_DONOR>
1

> <PUBCHEM_CACTVS_ROTATABLE_BOND>
5

> <PUBCHEM_CACTVS_SUBSKEYS>
AAADceB7MAAGAAAAAAAAAAAAAAAAAAAAAAA8eMECAAAAAACxUAAAHgIQAAAADA7BmCQwxoPABACIAiVSUACCCAAhJwAIikEObogMZjLFs5vWOCjm1BnI6AeY2aOeIAAAAgICABRAAAAEBAQAKAAAAAAAAA==

> <PUBCHEM_IUPAC_OPENEYE_NAME>
7-[4-[[4-(2,3-dichlorophenyl)piperazin-1-yl]methyl]phenoxy]-3,4-dihydro-1H-quinolin-2-one

> <PUBCHEM_IUPAC_CAS_NAME>
7-[4-[[4-(2,3-dichlorophenyl)-1-piperazinyl]methyl]phenoxy]-3,4-dihydro-1H-quinolin-2-one

> <PUBCHEM_IUPAC_NAME_MARKUP>
7-[4-[[4-(2,3-dichlorophenyl)piperazin-1-yl]methyl]phenoxy]-3,4-dihydro-1<I>H</I>-quinolin-2-one

> <PUBCHEM_IUPAC_NAME>
7-[4-[[4-(2,3-dichlorophenyl)piperazin-1-yl]methyl]phenoxy]-3,4-dihydro-1H-quinolin-2-one

> <PUBCHEM_IUPAC_SYSTEMATIC_NAME>
7-[4-[[4-[2,3-bis(chloranyl)phenyl]piperazin-1-yl]methyl]phenoxy]-3,4-dihydro-1H-quinolin-2-one

> <PUBCHEM_IUPAC_TRADITIONAL_NAME>
7-[4-[[4-(2,3-dichlorophenyl)piperazino]methyl]phenoxy]-3,4-dihydrocarbostyril

> <PUBCHEM_IUPAC_INCHI>
InChI=1S/C26H25Cl2N3O2/c27-22-2-1-3-24(26(22)28)31-14-12-30(13-15-31)17-18-4-8-20(9-5-18)33-21-10-6-19-7-11-25(32)29-23(19)16-21/h1-6,8-10,16H,7,11-15,17H2,(H,29,32)

> <PUBCHEM_IUPAC_INCHIKEY>
MCIWPVPYVLZFFO-UHFFFAOYSA-N

> <PUBCHEM_XLOGP3_AA>
5.3

> <PUBCHEM_EXACT_MASS>
481.1323824

> <PUBCHEM_MOLECULAR_FORMULA>
C26H25Cl2N3O2

> <PUBCHEM_MOLECULAR_WEIGHT>
482.4

> <PUBCHEM_OPENEYE_CAN_SMILES>
C1CC(=O)NC2=C1C=CC(=C2)OC3=CC=C(C=C3)CN4CCN(CC4)C5=C(C(=CC=C5)Cl)Cl

> <PUBCHEM_OPENEYE_ISO_SMILES>
C1CC(=O)NC2=C1C=CC(=C2)OC3=CC=C(C=C3)CN4CCN(CC4)C5=C(C(=CC=C5)Cl)Cl

> <PUBCHEM_CACTVS_TPSA>
44.8

> <PUBCHEM_MONOISOTOPIC_WEIGHT>
481.1323824

> <PUBCHEM_TOTAL_CHARGE>
0

> <PUBCHEM_HEAVY_ATOM_COUNT>
33

> <PUBCHEM_ATOM_DEF_STEREO_COUNT>
0

> <PUBCHEM_ATOM_UDEF_STEREO_COUNT>
0

> <PUBCHEM_BOND_DEF_STEREO_COUNT>
0

> <PUBCHEM_BOND_UDEF_STEREO_COUNT>
0

> <PUBCHEM_ISOTOPIC_ATOM_COUNT>
0

> <PUBCHEM_COMPONENT_COUNT>
1

> <PUBCHEM_CACTVS_TAUTO_COUNT>
-1

> <PUBCHEM_COORDINATE_TYPE>
1
5
255

> <PUBCHEM_BONDANNOTATIONS>
13  15  8
13  16  8
14  17  8
14  18  8
15  23  8
16  24  8
17  21  8
18  22  8
20  26  8
20  31  8
21  25  8
22  25  8
23  28  8
24  28  8
26  30  8
29  30  8
29  33  8
31  33  8

$$$$
