15291587
  -OEChem-09292322202D

106111  0     0  0  0  0  0  0999 V2000
    9.2619   -2.5907    0.0000 O   0  0  0  0  0  0  0  0  0  0  0  0
    8.4487    0.4966    0.0000 O   0  0  0  0  0  0  0  0  0  0  0  0
    4.6783   -1.7860    0.0000 N   0  0  0  0  0  0  0  0  0  0  0  0
    4.2746    2.5542    0.0000 N   0  0  0  0  0  0  0  0  0  0  0  0
   12.2619   -4.3228    0.0000 N   0  0  0  0  0  0  0  0  0  0  0  0
   11.8926    0.1226    0.0000 N   0  0  0  0  0  0  0  0  0  0  0  0
    4.6783   -3.3955    0.0000 N   0  0  0  0  0  0  0  0  0  0  0  0
    5.2251    3.8530    0.0000 N   0  0  0  0  0  0  0  0  0  0  0  0
   11.2619   -4.3228    0.0000 C   0  0  0  0  0  0  0  0  0  0  0  0
   11.0856    0.7131    0.0000 C   0  0  0  0  0  0  0  0  0  0  0  0
    4.9889   -0.8355    0.0000 C   0  0  0  0  0  0  0  0  0  0  0  0
    3.9639    1.6036    0.0000 C   0  0  0  0  0  0  0  0  0  0  0  0
    3.7320   -2.0907    0.0000 C   0  0  0  0  0  0  0  0  0  0  0  0
    3.6910    3.3589    0.0000 C   0  0  0  0  0  0  0  0  0  0  0  0
    5.2619   -2.5907    0.0000 C   0  0  0  0  0  0  0  0  0  0  0  0
    5.2208    2.8589    0.0000 C   0  0  0  0  0  0  0  0  0  0  0  0
   10.7619   -3.4568    0.0000 C   0  0  0  0  0  0  0  0  0  0  0  0
   10.1706    0.3096    0.0000 C   0  0  0  0  0  0  0  0  0  0  0  0
    3.7320   -3.0907    0.0000 C   0  0  0  0  0  0  0  0  0  0  0  0
    4.2815    4.1659    0.0000 C   0  0  0  0  0  0  0  0  0  0  0  0
   12.7619   -5.1888    0.0000 C   0  0  0  0  0  0  0  0  0  0  0  0
   12.7619   -3.4568    0.0000 C   0  0  0  0  0  0  0  0  0  0  0  0
   12.8075    0.5261    0.0000 C   0  0  0  0  0  0  0  0  0  0  0  0
   11.7846   -0.8716    0.0000 C   0  0  0  0  0  0  0  0  0  0  0  0
    6.2619   -2.5907    0.0000 C   0  0  0  0  0  0  0  0  0  0  0  0
    6.0278    2.2683    0.0000 C   0  0  0  0  0  0  0  0  0  0  0  0
    4.3211   -0.0912    0.0000 C   0  0  0  0  0  0  0  0  0  0  0  0
    4.6318    0.8594    0.0000 C   0  0  0  0  0  0  0  0  0  0  0  0
    9.7619   -3.4568    0.0000 C   0  0  0  0  0  0  0  0  0  0  0  0
    9.3636    0.9002    0.0000 C   0  0  0  0  0  0  0  0  0  0  0  0
    2.8660   -1.5907    0.0000 C   0  0  0  0  0  0  0  0  0  0  0  0
    2.6968    3.4669    0.0000 C   0  0  0  0  0  0  0  0  0  0  0  0
    2.8660   -3.5907    0.0000 C   0  0  0  0  0  0  0  0  0  0  0  0
    3.8780    5.0808    0.0000 C   0  0  0  0  0  0  0  0  0  0  0  0
    6.7619   -3.4568    0.0000 C   0  0  0  0  0  0  0  0  0  0  0  0
    5.9198    1.2742    0.0000 C   0  0  0  0  0  0  0  0  0  0  0  0
    6.7619   -1.7247    0.0000 C   0  0  0  0  0  0  0  0  0  0  0  0
    6.9427    2.6719    0.0000 C   0  0  0  0  0  0  0  0  0  0  0  0
    8.2619   -2.5907    0.0000 C   0  0  0  0  0  0  0  0  0  0  0  0
    7.6417    1.0872    0.0000 C   0  0  0  0  0  0  0  0  0  0  0  0
   13.7619   -5.1888    0.0000 C   0  0  0  0  0  0  0  0  0  0  0  0
   13.7619   -3.4568    0.0000 C   0  0  0  0  0  0  0  0  0  0  0  0
   12.9155    1.5203    0.0000 C   0  0  0  0  0  0  0  0  0  0  0  0
   12.5916   -1.4622    0.0000 C   0  0  0  0  0  0  0  0  0  0  0  0
    7.7619   -3.4568    0.0000 C   0  0  0  0  0  0  0  0  0  0  0  0
    6.7268    0.6836    0.0000 C   0  0  0  0  0  0  0  0  0  0  0  0
    7.7619   -1.7247    0.0000 C   0  0  0  0  0  0  0  0  0  0  0  0
    7.7497    2.0813    0.0000 C   0  0  0  0  0  0  0  0  0  0  0  0
    2.0000   -2.0907    0.0000 C   0  0  0  0  0  0  0  0  0  0  0  0
    2.2932    4.3818    0.0000 C   0  0  0  0  0  0  0  0  0  0  0  0
    2.0000   -3.0907    0.0000 C   0  0  0  0  0  0  0  0  0  0  0  0
    2.8838    5.1888    0.0000 C   0  0  0  0  0  0  0  0  0  0  0  0
   10.6793   -4.5348    0.0000 H   0  0  0  0  0  0  0  0  0  0  0  0
   11.3695   -4.9334    0.0000 H   0  0  0  0  0  0  0  0  0  0  0  0
   11.5331    1.1423    0.0000 H   0  0  0  0  0  0  0  0  0  0  0  0
   10.7407    1.2283    0.0000 H   0  0  0  0  0  0  0  0  0  0  0  0
    5.5359   -1.1275    0.0000 H   0  0  0  0  0  0  0  0  0  0  0  0
    5.3715   -0.3476    0.0000 H   0  0  0  0  0  0  0  0  0  0  0  0
    3.4170    1.8957    0.0000 H   0  0  0  0  0  0  0  0  0  0  0  0
    3.5814    1.1158    0.0000 H   0  0  0  0  0  0  0  0  0  0  0  0
   11.3445   -3.2447    0.0000 H   0  0  0  0  0  0  0  0  0  0  0  0
   10.6542   -2.8462    0.0000 H   0  0  0  0  0  0  0  0  0  0  0  0
    9.7232   -0.1196    0.0000 H   0  0  0  0  0  0  0  0  0  0  0  0
   10.5155   -0.2056    0.0000 H   0  0  0  0  0  0  0  0  0  0  0  0
   12.1793   -5.4008    0.0000 H   0  0  0  0  0  0  0  0  0  0  0  0
   12.8695   -5.7994    0.0000 H   0  0  0  0  0  0  0  0  0  0  0  0
   12.8695   -2.8462    0.0000 H   0  0  0  0  0  0  0  0  0  0  0  0
   12.1793   -3.2447    0.0000 H   0  0  0  0  0  0  0  0  0  0  0  0
   12.9554   -0.0760    0.0000 H   0  0  0  0  0  0  0  0  0  0  0  0
   13.4261    0.5672    0.0000 H   0  0  0  0  0  0  0  0  0  0  0  0
   11.1892   -0.6986    0.0000 H   0  0  0  0  0  0  0  0  0  0  0  0
   11.5109   -1.4279    0.0000 H   0  0  0  0  0  0  0  0  0  0  0  0
    3.7144   -0.2190    0.0000 H   0  0  0  0  0  0  0  0  0  0  0  0
    5.2384    0.9872    0.0000 H   0  0  0  0  0  0  0  0  0  0  0  0
    9.1793   -3.6688    0.0000 H   0  0  0  0  0  0  0  0  0  0  0  0
    9.8695   -4.0673    0.0000 H   0  0  0  0  0  0  0  0  0  0  0  0
    9.8111    1.3293    0.0000 H   0  0  0  0  0  0  0  0  0  0  0  0
    9.0187    1.4154    0.0000 H   0  0  0  0  0  0  0  0  0  0  0  0
    2.8660   -0.9707    0.0000 H   0  0  0  0  0  0  0  0  0  0  0  0
    2.3306    2.9665    0.0000 H   0  0  0  0  0  0  0  0  0  0  0  0
    2.8660   -4.2107    0.0000 H   0  0  0  0  0  0  0  0  0  0  0  0
    4.2441    5.5812    0.0000 H   0  0  0  0  0  0  0  0  0  0  0  0
    6.4519   -3.9937    0.0000 H   0  0  0  0  0  0  0  0  0  0  0  0
    5.3525    1.0240    0.0000 H   0  0  0  0  0  0  0  0  0  0  0  0
    6.4519   -1.1878    0.0000 H   0  0  0  0  0  0  0  0  0  0  0  0
    7.0097    3.2883    0.0000 H   0  0  0  0  0  0  0  0  0  0  0  0
   13.7619   -5.8088    0.0000 H   0  0  0  0  0  0  0  0  0  0  0  0
   14.3819   -5.1888    0.0000 H   0  0  0  0  0  0  0  0  0  0  0  0
   13.7619   -4.5688    0.0000 H   0  0  0  0  0  0  0  0  0  0  0  0
   13.7619   -4.0768    0.0000 H   0  0  0  0  0  0  0  0  0  0  0  0
   14.3819   -3.4568    0.0000 H   0  0  0  0  0  0  0  0  0  0  0  0
   13.7619   -2.8368    0.0000 H   0  0  0  0  0  0  0  0  0  0  0  0
   13.5318    1.4533    0.0000 H   0  0  0  0  0  0  0  0  0  0  0  0
   12.9824    2.1367    0.0000 H   0  0  0  0  0  0  0  0  0  0  0  0
   12.2991    1.5872    0.0000 H   0  0  0  0  0  0  0  0  0  0  0  0
   12.2254   -1.9625    0.0000 H   0  0  0  0  0  0  0  0  0  0  0  0
   13.0919   -1.8283    0.0000 H   0  0  0  0  0  0  0  0  0  0  0  0
   12.9577   -0.9618    0.0000 H   0  0  0  0  0  0  0  0  0  0  0  0
    8.0719   -3.9937    0.0000 H   0  0  0  0  0  0  0  0  0  0  0  0
    6.6598    0.0672    0.0000 H   0  0  0  0  0  0  0  0  0  0  0  0
    8.0719   -1.1878    0.0000 H   0  0  0  0  0  0  0  0  0  0  0  0
    8.3170    2.3315    0.0000 H   0  0  0  0  0  0  0  0  0  0  0  0
    1.4631   -1.7807    0.0000 H   0  0  0  0  0  0  0  0  0  0  0  0
    1.6769    4.4488    0.0000 H   0  0  0  0  0  0  0  0  0  0  0  0
    1.4631   -3.4007    0.0000 H   0  0  0  0  0  0  0  0  0  0  0  0
    2.6336    5.7561    0.0000 H   0  0  0  0  0  0  0  0  0  0  0  0
  1 29  1  0  0  0  0
  1 39  1  0  0  0  0
  2 30  1  0  0  0  0
  2 40  1  0  0  0  0
  3 11  1  0  0  0  0
  3 13  1  0  0  0  0
  3 15  1  0  0  0  0
  4 12  1  0  0  0  0
  4 14  1  0  0  0  0
  4 16  1  0  0  0  0
  5  9  1  0  0  0  0
  5 21  1  0  0  0  0
  5 22  1  0  0  0  0
  6 10  1  0  0  0  0
  6 23  1  0  0  0  0
  6 24  1  0  0  0  0
  7 15  2  0  0  0  0
  7 19  1  0  0  0  0
  8 16  2  0  0  0  0
  8 20  1  0  0  0  0
  9 17  1  0  0  0  0
  9 53  1  0  0  0  0
  9 54  1  0  0  0  0
 10 18  1  0  0  0  0
 10 55  1  0  0  0  0
 10 56  1  0  0  0  0
 11 27  1  0  0  0  0
 11 57  1  0  0  0  0
 11 58  1  0  0  0  0
 12 28  1  0  0  0  0
 12 59  1  0  0  0  0
 12 60  1  0  0  0  0
 13 19  1  0  0  0  0
 13 31  2  0  0  0  0
 14 20  1  0  0  0  0
 14 32  2  0  0  0  0
 15 25  1  0  0  0  0
 16 26  1  0  0  0  0
 17 29  1  0  0  0  0
 17 61  1  0  0  0  0
 17 62  1  0  0  0  0
 18 30  1  0  0  0  0
 18 63  1  0  0  0  0
 18 64  1  0  0  0  0
 19 33  2  0  0  0  0
 20 34  2  0  0  0  0
 21 41  1  0  0  0  0
 21 65  1  0  0  0  0
 21 66  1  0  0  0  0
 22 42  1  0  0  0  0
 22 67  1  0  0  0  0
 22 68  1  0  0  0  0
 23 43  1  0  0  0  0
 23 69  1  0  0  0  0
 23 70  1  0  0  0  0
 24 44  1  0  0  0  0
 24 71  1  0  0  0  0
 24 72  1  0  0  0  0
 25 35  2  0  0  0  0
 25 37  1  0  0  0  0
 26 36  2  0  0  0  0
 26 38  1  0  0  0  0
 27 28  2  0  0  0  0
 27 73  1  0  0  0  0
 28 74  1  0  0  0  0
 29 75  1  0  0  0  0
 29 76  1  0  0  0  0
 30 77  1  0  0  0  0
 30 78  1  0  0  0  0
 31 49  1  0  0  0  0
 31 79  1  0  0  0  0
 32 50  1  0  0  0  0
 32 80  1  0  0  0  0
 33 51  1  0  0  0  0
 33 81  1  0  0  0  0
 34 52  1  0  0  0  0
 34 82  1  0  0  0  0
 35 45  1  0  0  0  0
 35 83  1  0  0  0  0
 36 46  1  0  0  0  0
 36 84  1  0  0  0  0
 37 47  2  0  0  0  0
 37 85  1  0  0  0  0
 38 48  2  0  0  0  0
 38 86  1  0  0  0  0
 39 45  2  0  0  0  0
 39 47  1  0  0  0  0
 40 46  2  0  0  0  0
 40 48  1  0  0  0  0
 41 87  1  0  0  0  0
 41 88  1  0  0  0  0
 41 89  1  0  0  0  0
 42 90  1  0  0  0  0
 42 91  1  0  0  0  0
 42 92  1  0  0  0  0
 43 93  1  0  0  0  0
 43 94  1  0  0  0  0
 43 95  1  0  0  0  0
 44 96  1  0  0  0  0
 44 97  1  0  0  0  0
 44 98  1  0  0  0  0
 45 99  1  0  0  0  0
 46100  1  0  0  0  0
 47101  1  0  0  0  0
 48102  1  0  0  0  0
 49 51  2  0  0  0  0
 49103  1  0  0  0  0
 50 52  2  0  0  0  0
 50104  1  0  0  0  0
 51105  1  0  0  0  0
 52106  1  0  0  0  0
M  END
> <PUBCHEM_COMPOUND_CID>
15291587

> <PUBCHEM_COMPOUND_CANONICALIZED>
1

> <PUBCHEM_CACTVS_COMPLEXITY>
929

> <PUBCHEM_CACTVS_HBOND_ACCEPTOR>
6

> <PUBCHEM_CACTVS_HBOND_DONOR>
0

> <PUBCHEM_CACTVS_ROTATABLE_BOND>
20

> <PUBCHEM_CACTVS_SUBSKEYS>
AAADcfB/sAAAAAAAAAAAAAAAAAAAAWLAAAAwYMGAAAAAAFgB/gAAHgAAAAAADAzhnwYz1rcMFACgAyZiZACCiC0hMqAJ2CA+fJiMbqLEuZuWOCjuwBPI6CeQ0AIOIAAAAAAAACBAAAAAAAAAQAAAAAAAAA==

> <PUBCHEM_IUPAC_OPENEYE_NAME>
3-[4-[1-[(E)-4-[2-[4-[3-(diethylamino)propoxy]phenyl]benzimidazol-1-yl]but-2-enyl]benzimidazol-2-yl]phenoxy]-N,N-diethyl-propan-1-amine

> <PUBCHEM_IUPAC_CAS_NAME>
3-[4-[1-[(E)-4-[2-[4-[3-(diethylamino)propoxy]phenyl]-1-benzimidazolyl]but-2-enyl]-2-benzimidazolyl]phenoxy]-N,N-diethyl-1-propanamine

> <PUBCHEM_IUPAC_NAME_MARKUP>
3-[4-[1-[(<I>E</I>)-4-[2-[4-[3-(diethylamino)propoxy]phenyl]benzimidazol-1-yl]but-2-enyl]benzimidazol-2-yl]phenoxy]-<I>N</I>,<I>N</I>-diethylpropan-1-amine

> <PUBCHEM_IUPAC_NAME>
3-[4-[1-[(E)-4-[2-[4-[3-(diethylamino)propoxy]phenyl]benzimidazol-1-yl]but-2-enyl]benzimidazol-2-yl]phenoxy]-N,N-diethylpropan-1-amine

> <PUBCHEM_IUPAC_SYSTEMATIC_NAME>
3-[4-[1-[(E)-4-[2-[4-[3-(diethylamino)propoxy]phenyl]benzimidazol-1-yl]but-2-enyl]benzimidazol-2-yl]phenoxy]-N,N-diethyl-propan-1-amine

> <PUBCHEM_IUPAC_TRADITIONAL_NAME>
3-[4-[1-[(E)-4-[2-[4-[3-(diethylamino)propoxy]phenyl]benzimidazol-1-yl]but-2-enyl]benzimidazol-2-yl]phenoxy]propyl-diethyl-amine

> <PUBCHEM_IUPAC_INCHI>
InChI=1S/C44H54N6O2/c1-5-47(6-2)29-15-33-51-37-25-21-35(22-26-37)43-45-39-17-9-11-19-41(39)49(43)31-13-14-32-50-42-20-12-10-18-40(42)46-44(50)36-23-27-38(28-24-36)52-34-16-30-48(7-3)8-4/h9-14,17-28H,5-8,15-16,29-34H2,1-4H3/b14-13+

> <PUBCHEM_IUPAC_INCHIKEY>
VZCQCONTEBWWMW-BUHFOSPRSA-N

> <PUBCHEM_XLOGP3_AA>
8.7

> <PUBCHEM_EXACT_MASS>
698.43082499

> <PUBCHEM_MOLECULAR_FORMULA>
C44H54N6O2

> <PUBCHEM_MOLECULAR_WEIGHT>
698.9

> <PUBCHEM_OPENEYE_CAN_SMILES>
CCN(CC)CCCOC1=CC=C(C=C1)C2=NC3=CC=CC=C3N2CC=CCN4C5=CC=CC=C5N=C4C6=CC=C(C=C6)OCCCN(CC)CC

> <PUBCHEM_OPENEYE_ISO_SMILES>
CCN(CC)CCCOC1=CC=C(C=C1)C2=NC3=CC=CC=C3N2C/C=C/CN4C5=CC=CC=C5N=C4C6=CC=C(C=C6)OCCCN(CC)CC

> <PUBCHEM_CACTVS_TPSA>
60.6

> <PUBCHEM_MONOISOTOPIC_WEIGHT>
698.43082499

> <PUBCHEM_TOTAL_CHARGE>
0

> <PUBCHEM_HEAVY_ATOM_COUNT>
52

> <PUBCHEM_ATOM_DEF_STEREO_COUNT>
0

> <PUBCHEM_ATOM_UDEF_STEREO_COUNT>
0

> <PUBCHEM_BOND_DEF_STEREO_COUNT>
1

> <PUBCHEM_BOND_UDEF_STEREO_COUNT>
0

> <PUBCHEM_ISOTOPIC_ATOM_COUNT>
0

> <PUBCHEM_COMPONENT_COUNT>
1

> <PUBCHEM_CACTVS_TAUTO_COUNT>
-1

> <PUBCHEM_COORDINATE_TYPE>
1
5
255

> <PUBCHEM_BONDANNOTATIONS>
13  19  8
13  31  8
14  20  8
14  32  8
19  33  8
20  34  8
25  35  8
25  37  8
26  36  8
26  38  8
3  13  8
3  15  8
31  49  8
32  50  8
33  51  8
34  52  8
35  45  8
36  46  8
37  47  8
38  48  8
39  45  8
39  47  8
4  14  8
4  16  8
40  46  8
40  48  8
49  51  8
50  52  8
7  15  8
7  19  8
8  16  8
8  20  8

$$$$
