137644041
  -OEChem-09292322082D

 53 57  0     0  0  0  0  0  0999 V2000
   10.5710   -2.1544    0.0000 S   0  0  0  0  0  0  0  0  0  0  0  0
    4.6660    4.6776    0.0000 O   0  0  0  0  0  0  0  0  0  0  0  0
    6.3981    2.6776    0.0000 O   0  0  0  0  0  0  0  0  0  0  0  0
    6.3981   -0.3224    0.0000 N   0  0  0  0  0  0  0  0  0  0  0  0
    8.1301   -1.3224    0.0000 N   0  0  0  0  0  0  0  0  0  0  0  0
    4.6660    2.6776    0.0000 N   0  0  0  0  0  0  0  0  0  0  0  0
    9.9040   -1.4173    0.0000 N   0  0  0  0  0  0  0  0  0  0  0  0
    7.2641    0.1776    0.0000 C   0  0  0  0  0  0  0  0  0  0  0  0
    6.3981   -1.3224    0.0000 C   0  0  0  0  0  0  0  0  0  0  0  0
    8.1301   -0.3224    0.0000 C   0  0  0  0  0  0  0  0  0  0  0  0
    7.2641   -1.8224    0.0000 C   0  0  0  0  0  0  0  0  0  0  0  0
    5.5321    0.1776    0.0000 C   0  0  0  0  0  0  0  0  0  0  0  0
    5.5321    1.1776    0.0000 C   0  0  0  0  0  0  0  0  0  0  0  0
    4.6660    1.6776    0.0000 C   0  0  0  0  0  0  0  0  0  0  0  0
    8.9962   -1.8224    0.0000 C   0  0  0  0  0  0  0  0  0  0  0  0
    9.0992   -2.8112    0.0000 C   0  0  0  0  0  0  0  0  0  0  0  0
    3.8000    3.1776    0.0000 C   0  0  0  0  0  0  0  0  0  0  0  0
    5.5321    3.1776    0.0000 C   0  0  0  0  0  0  0  0  0  0  0  0
   10.0777   -3.0174    0.0000 C   0  0  0  0  0  0  0  0  0  0  0  0
    3.8000    4.1776    0.0000 C   0  0  0  0  0  0  0  0  0  0  0  0
    5.5321    4.1776    0.0000 C   0  0  0  0  0  0  0  0  0  0  0  0
    8.4314   -3.5555    0.0000 C   0  0  0  0  0  0  0  0  0  0  0  0
    2.9061    2.6429    0.0000 C   0  0  0  0  0  0  0  0  0  0  0  0
   10.3884   -3.9679    0.0000 C   0  0  0  0  0  0  0  0  0  0  0  0
    8.7420   -4.5060    0.0000 C   0  0  0  0  0  0  0  0  0  0  0  0
    2.9061    4.7122    0.0000 C   0  0  0  0  0  0  0  0  0  0  0  0
    9.7205   -4.7122    0.0000 C   0  0  0  0  0  0  0  0  0  0  0  0
    2.0000    3.1567    0.0000 C   0  0  0  0  0  0  0  0  0  0  0  0
    2.0000    4.1984    0.0000 C   0  0  0  0  0  0  0  0  0  0  0  0
    7.6626    0.6525    0.0000 H   0  0  0  0  0  0  0  0  0  0  0  0
    6.8656    0.6525    0.0000 H   0  0  0  0  0  0  0  0  0  0  0  0
    5.7875   -1.2148    0.0000 H   0  0  0  0  0  0  0  0  0  0  0  0
    6.1860   -1.9051    0.0000 H   0  0  0  0  0  0  0  0  0  0  0  0
    8.7407   -0.4301    0.0000 H   0  0  0  0  0  0  0  0  0  0  0  0
    8.3422    0.2602    0.0000 H   0  0  0  0  0  0  0  0  0  0  0  0
    6.8656   -2.2974    0.0000 H   0  0  0  0  0  0  0  0  0  0  0  0
    7.6626   -2.2974    0.0000 H   0  0  0  0  0  0  0  0  0  0  0  0
    4.9215    0.2852    0.0000 H   0  0  0  0  0  0  0  0  0  0  0  0
    5.3200   -0.4051    0.0000 H   0  0  0  0  0  0  0  0  0  0  0  0
    6.1426    1.0699    0.0000 H   0  0  0  0  0  0  0  0  0  0  0  0
    5.7441    1.7602    0.0000 H   0  0  0  0  0  0  0  0  0  0  0  0
    4.0555    1.7852    0.0000 H   0  0  0  0  0  0  0  0  0  0  0  0
    4.4540    1.0949    0.0000 H   0  0  0  0  0  0  0  0  0  0  0  0
    6.1426    4.0699    0.0000 H   0  0  0  0  0  0  0  0  0  0  0  0
    5.7441    4.7602    0.0000 H   0  0  0  0  0  0  0  0  0  0  0  0
    7.8247   -3.4276    0.0000 H   0  0  0  0  0  0  0  0  0  0  0  0
    2.9132    2.0229    0.0000 H   0  0  0  0  0  0  0  0  0  0  0  0
   10.9951   -4.0958    0.0000 H   0  0  0  0  0  0  0  0  0  0  0  0
    2.9132    5.3322    0.0000 H   0  0  0  0  0  0  0  0  0  0  0  0
    8.3280   -4.9675    0.0000 H   0  0  0  0  0  0  0  0  0  0  0  0
    9.9132   -5.3015    0.0000 H   0  0  0  0  0  0  0  0  0  0  0  0
    1.4643    2.8447    0.0000 H   0  0  0  0  0  0  0  0  0  0  0  0
    1.4643    4.5104    0.0000 H   0  0  0  0  0  0  0  0  0  0  0  0
  1  7  1  0  0  0  0
  1 19  1  0  0  0  0
  2 20  1  0  0  0  0
  2 21  1  0  0  0  0
  3 18  2  0  0  0  0
  4  8  1  0  0  0  0
  4  9  1  0  0  0  0
  4 12  1  0  0  0  0
  5 10  1  0  0  0  0
  5 11  1  0  0  0  0
  5 15  1  0  0  0  0
  6 14  1  0  0  0  0
  6 17  1  0  0  0  0
  6 18  1  0  0  0  0
  7 15  2  0  0  0  0
  8 10  1  0  0  0  0
  8 30  1  0  0  0  0
  8 31  1  0  0  0  0
  9 11  1  0  0  0  0
  9 32  1  0  0  0  0
  9 33  1  0  0  0  0
 10 34  1  0  0  0  0
 10 35  1  0  0  0  0
 11 36  1  0  0  0  0
 11 37  1  0  0  0  0
 12 13  1  0  0  0  0
 12 38  1  0  0  0  0
 12 39  1  0  0  0  0
 13 14  1  0  0  0  0
 13 40  1  0  0  0  0
 13 41  1  0  0  0  0
 14 42  1  0  0  0  0
 14 43  1  0  0  0  0
 15 16  1  0  0  0  0
 16 19  1  0  0  0  0
 16 22  2  0  0  0  0
 17 20  1  0  0  0  0
 17 23  2  0  0  0  0
 18 21  1  0  0  0  0
 19 24  2  0  0  0  0
 20 26  2  0  0  0  0
 21 44  1  0  0  0  0
 21 45  1  0  0  0  0
 22 25  1  0  0  0  0
 22 46  1  0  0  0  0
 23 28  1  0  0  0  0
 23 47  1  0  0  0  0
 24 27  1  0  0  0  0
 24 48  1  0  0  0  0
 25 27  2  0  0  0  0
 25 50  1  0  0  0  0
 26 29  1  0  0  0  0
 26 49  1  0  0  0  0
 27 51  1  0  0  0  0
 28 29  2  0  0  0  0
 28 52  1  0  0  0  0
 29 53  1  0  0  0  0
M  END
> <PUBCHEM_COMPOUND_CID>
137644041

> <PUBCHEM_COMPOUND_CANONICALIZED>
1

> <PUBCHEM_CACTVS_COMPLEXITY>
571

> <PUBCHEM_CACTVS_HBOND_ACCEPTOR>
6

> <PUBCHEM_CACTVS_HBOND_DONOR>
0

> <PUBCHEM_CACTVS_ROTATABLE_BOND>
5

> <PUBCHEM_CACTVS_SUBSKEYS>
AAADceB7sABAAAAAAAAAAAAAAAAAAWAAAAA8eIEAAAAAAFix9AAAHgQAQAAADAzh2gYx99MABACsAidycAKDCBAhIgBJmDhvbJiOZqLE+Z+XOCzkxhPY6AeQwAAOAAAAAAAEEAAAAAAAAAggAAAAAAAAAA==

> <PUBCHEM_IUPAC_OPENEYE_NAME>
4-[3-[4-(1,2-benzothiazol-3-yl)piperazin-1-yl]propyl]-1,4-benzoxazin-3-one

> <PUBCHEM_IUPAC_CAS_NAME>
4-[3-[4-(1,2-benzothiazol-3-yl)-1-piperazinyl]propyl]-1,4-benzoxazin-3-one

> <PUBCHEM_IUPAC_NAME_MARKUP>
4-[3-[4-(1,2-benzothiazol-3-yl)piperazin-1-yl]propyl]-1,4-benzoxazin-3-one

> <PUBCHEM_IUPAC_NAME>
4-[3-[4-(1,2-benzothiazol-3-yl)piperazin-1-yl]propyl]-1,4-benzoxazin-3-one

> <PUBCHEM_IUPAC_SYSTEMATIC_NAME>
4-[3-[4-(1,2-benzothiazol-3-yl)piperazin-1-yl]propyl]-1,4-benzoxazin-3-one

> <PUBCHEM_IUPAC_TRADITIONAL_NAME>
4-[3-[4-(1,2-benzothiazol-3-yl)piperazino]propyl]-1,4-benzoxazin-3-one

> <PUBCHEM_IUPAC_INCHI>
InChI=1S/C22H24N4O2S/c27-21-16-28-19-8-3-2-7-18(19)26(21)11-5-10-24-12-14-25(15-13-24)22-17-6-1-4-9-20(17)29-23-22/h1-4,6-9H,5,10-16H2

> <PUBCHEM_IUPAC_INCHIKEY>
FQGGNELGQIQAHB-UHFFFAOYSA-N

> <PUBCHEM_XLOGP3_AA>
3.8

> <PUBCHEM_EXACT_MASS>
408.16199719

> <PUBCHEM_MOLECULAR_FORMULA>
C22H24N4O2S

> <PUBCHEM_MOLECULAR_WEIGHT>
408.5

> <PUBCHEM_OPENEYE_CAN_SMILES>
C1CN(CCN1CCCN2C(=O)COC3=CC=CC=C32)C4=NSC5=CC=CC=C54

> <PUBCHEM_OPENEYE_ISO_SMILES>
C1CN(CCN1CCCN2C(=O)COC3=CC=CC=C32)C4=NSC5=CC=CC=C54

> <PUBCHEM_CACTVS_TPSA>
77.2

> <PUBCHEM_MONOISOTOPIC_WEIGHT>
408.16199719

> <PUBCHEM_TOTAL_CHARGE>
0

> <PUBCHEM_HEAVY_ATOM_COUNT>
29

> <PUBCHEM_ATOM_DEF_STEREO_COUNT>
0

> <PUBCHEM_ATOM_UDEF_STEREO_COUNT>
0

> <PUBCHEM_BOND_DEF_STEREO_COUNT>
0

> <PUBCHEM_BOND_UDEF_STEREO_COUNT>
0

> <PUBCHEM_ISOTOPIC_ATOM_COUNT>
0

> <PUBCHEM_COMPONENT_COUNT>
1

> <PUBCHEM_CACTVS_TAUTO_COUNT>
-1

> <PUBCHEM_COORDINATE_TYPE>
1
5
255

> <PUBCHEM_BONDANNOTATIONS>
1  19  8
1  7  8
15  16  8
16  19  8
16  22  8
17  20  8
17  23  8
19  24  8
20  26  8
22  25  8
23  28  8
24  27  8
25  27  8
26  29  8
28  29  8
7  15  8

$$$$
