20861039
  -OEChem-09292321582D

 52 56  0     1  0  0  0  0  0999 V2000
   11.3367   -1.1648    0.0000 S   0  0  3  0  0  0  0  0  0  0  0  0
   12.2706    1.9268    0.0000 O   0  0  0  0  0  0  0  0  0  0  0  0
   11.3367   -2.1648    0.0000 O   0  0  0  0  0  0  0  0  0  0  0  0
    2.3934   -1.1826    0.0000 O   0  0  0  0  0  0  0  0  0  0  0  0
    2.7455   -2.7530    0.0000 O   0  0  0  0  0  0  0  0  0  0  0  0
    7.2805    1.1380    0.0000 O   0  0  0  0  0  0  0  0  0  0  0  0
   10.8367    1.0258    0.0000 N   0  0  0  0  0  0  0  0  0  0  0  0
    6.7636   -0.5151    0.0000 N   0  0  0  0  0  0  0  0  0  0  0  0
   10.2132    0.2440    0.0000 C   0  0  0  0  0  0  0  0  0  0  0  0
   10.4357   -0.7309    0.0000 C   0  0  0  0  0  0  0  0  0  0  0  0
   12.4602    0.2440    0.0000 C   0  0  0  0  0  0  0  0  0  0  0  0
   10.4028    1.9268    0.0000 C   0  0  0  0  0  0  0  0  0  0  0  0
   12.2377   -0.7309    0.0000 C   0  0  0  0  0  0  0  0  0  0  0  0
   11.8367    1.0258    0.0000 C   0  0  0  0  0  0  0  0  0  0  0  0
    9.2227    0.5663    0.0000 C   0  0  0  0  0  0  0  0  0  0  0  0
    8.4537   -0.1362    0.0000 C   0  0  0  0  0  0  0  0  0  0  0  0
    9.6832   -1.4511    0.0000 C   0  0  0  0  0  0  0  0  0  0  0  0
    8.6855   -1.1518    0.0000 C   0  0  0  0  0  0  0  0  0  0  0  0
   13.4507    0.5663    0.0000 C   0  0  0  0  0  0  0  0  0  0  0  0
   12.9902   -1.4511    0.0000 C   0  0  0  0  0  0  0  0  0  0  0  0
    7.4993    0.1622    0.0000 C   0  0  0  0  0  0  0  0  0  0  0  0
   10.9662    2.7530    0.0000 C   0  0  0  0  0  0  0  0  0  0  0  0
    5.8092   -0.2167    0.0000 C   0  0  0  0  0  0  0  0  0  0  0  0
    5.0735   -0.8940    0.0000 C   0  0  0  0  0  0  0  0  0  0  0  0
   14.2197   -0.1363    0.0000 C   0  0  0  0  0  0  0  0  0  0  0  0
   13.9879   -1.1518    0.0000 C   0  0  0  0  0  0  0  0  0  0  0  0
    4.1191   -0.5956    0.0000 C   0  0  0  0  0  0  0  0  0  0  0  0
    3.3834   -1.2729    0.0000 C   0  0  0  0  0  0  0  0  0  0  0  0
    3.6022   -2.2487    0.0000 C   0  0  0  0  0  0  0  0  0  0  0  0
    5.2922   -1.8698    0.0000 C   0  0  0  0  0  0  0  0  0  0  0  0
    4.5566   -2.5471    0.0000 C   0  0  0  0  0  0  0  0  0  0  0  0
    2.0000   -2.0955    0.0000 C   0  0  0  0  0  0  0  0  0  0  0  0
    9.9590    2.3597    0.0000 H   0  0  0  0  0  0  0  0  0  0  0  0
    9.8994    1.5649    0.0000 H   0  0  0  0  0  0  0  0  0  0  0  0
    9.0918    1.1724    0.0000 H   0  0  0  0  0  0  0  0  0  0  0  0
    9.8281   -2.0539    0.0000 H   0  0  0  0  0  0  0  0  0  0  0  0
    8.2326   -1.5752    0.0000 H   0  0  0  0  0  0  0  0  0  0  0  0
   13.5817    1.1723    0.0000 H   0  0  0  0  0  0  0  0  0  0  0  0
   12.8453   -2.0539    0.0000 H   0  0  0  0  0  0  0  0  0  0  0  0
    6.0942    0.3339    0.0000 H   0  0  0  0  0  0  0  0  0  0  0  0
    5.3164    0.1596    0.0000 H   0  0  0  0  0  0  0  0  0  0  0  0
   11.4784    2.4038    0.0000 H   0  0  0  0  0  0  0  0  0  0  0  0
   11.3154    3.2653    0.0000 H   0  0  0  0  0  0  0  0  0  0  0  0
   10.4539    3.1023    0.0000 H   0  0  0  0  0  0  0  0  0  0  0  0
    6.8992   -1.1201    0.0000 H   0  0  0  0  0  0  0  0  0  0  0  0
   14.8114    0.0488    0.0000 H   0  0  0  0  0  0  0  0  0  0  0  0
   14.4408   -1.5752    0.0000 H   0  0  0  0  0  0  0  0  0  0  0  0
    3.9834    0.0094    0.0000 H   0  0  0  0  0  0  0  0  0  0  0  0
    5.8840   -2.0548    0.0000 H   0  0  0  0  0  0  0  0  0  0  0  0
    4.6922   -3.1521    0.0000 H   0  0  0  0  0  0  0  0  0  0  0  0
    1.4596   -1.7916    0.0000 H   0  0  0  0  0  0  0  0  0  0  0  0
    1.6410   -2.6010    0.0000 H   0  0  0  0  0  0  0  0  0  0  0  0
  1  3  2  0  0  0  0
  1 10  1  0  0  0  0
  1 13  1  0  0  0  0
  2 14  2  0  0  0  0
  4 28  1  0  0  0  0
  4 32  1  0  0  0  0
  5 29  1  0  0  0  0
  5 32  1  0  0  0  0
  6 21  2  0  0  0  0
  7  9  1  0  0  0  0
  7 12  1  0  0  0  0
  7 14  1  0  0  0  0
  8 21  1  0  0  0  0
  8 23  1  0  0  0  0
  8 45  1  0  0  0  0
  9 10  2  0  0  0  0
  9 15  1  0  0  0  0
 10 17  1  0  0  0  0
 11 13  1  0  0  0  0
 11 14  1  0  0  0  0
 11 19  2  0  0  0  0
 12 22  1  0  0  0  0
 12 33  1  0  0  0  0
 12 34  1  0  0  0  0
 13 20  2  0  0  0  0
 15 16  2  0  0  0  0
 15 35  1  0  0  0  0
 16 18  1  0  0  0  0
 16 21  1  0  0  0  0
 17 18  2  0  0  0  0
 17 36  1  0  0  0  0
 18 37  1  0  0  0  0
 19 25  1  0  0  0  0
 19 38  1  0  0  0  0
 20 26  1  0  0  0  0
 20 39  1  0  0  0  0
 22 42  1  0  0  0  0
 22 43  1  0  0  0  0
 22 44  1  0  0  0  0
 23 24  1  0  0  0  0
 23 40  1  0  0  0  0
 23 41  1  0  0  0  0
 24 27  2  0  0  0  0
 24 30  1  0  0  0  0
 25 26  2  0  0  0  0
 25 46  1  0  0  0  0
 26 47  1  0  0  0  0
 27 28  1  0  0  0  0
 27 48  1  0  0  0  0
 28 29  2  0  0  0  0
 29 31  1  0  0  0  0
 30 31  2  0  0  0  0
 30 49  1  0  0  0  0
 31 50  1  0  0  0  0
 32 51  1  0  0  0  0
 32 52  1  0  0  0  0
M  END
> <PUBCHEM_COMPOUND_CID>
20861039

> <PUBCHEM_COMPOUND_CANONICALIZED>
1

> <PUBCHEM_CACTVS_COMPLEXITY>
748

> <PUBCHEM_CACTVS_HBOND_ACCEPTOR>
6

> <PUBCHEM_CACTVS_HBOND_DONOR>
1

> <PUBCHEM_CACTVS_ROTATABLE_BOND>
4

> <PUBCHEM_CACTVS_SUBSKEYS>
AAADceB7OABAAAAAAAAAAAAAAAAAASAAAAAwYMAABYAAAEgBUAAAHgQQAAAADAzB2Acyz4PABAqIAiVSUEDCCAAlKhAIiJ0O7MgdJjLktZukMSpkxhHu6Ye82BKOMAABQAAEQQBgAAKAAAiCAAAAAAAAAA==

> <PUBCHEM_IUPAC_OPENEYE_NAME>
N-(1,3-benzodioxol-5-ylmethyl)-5-ethyl-6,11-dioxo-benzo[b][1,4]benzothiazepine-3-carboxamide

> <PUBCHEM_IUPAC_CAS_NAME>
N-(1,3-benzodioxol-5-ylmethyl)-5-ethyl-6,11-dioxo-3-benzo[b][1,4]benzothiazepinecarboxamide

> <PUBCHEM_IUPAC_NAME_MARKUP>
<I>N</I>-(1,3-benzodioxol-5-ylmethyl)-5-ethyl-6,11-dioxobenzo[b][1,4]benzothiazepine-3-carboxamide

> <PUBCHEM_IUPAC_NAME>
N-(1,3-benzodioxol-5-ylmethyl)-5-ethyl-6,11-dioxobenzo[b][1,4]benzothiazepine-3-carboxamide

> <PUBCHEM_IUPAC_SYSTEMATIC_NAME>
N-(1,3-benzodioxol-5-ylmethyl)-5-ethyl-6,11-bis(oxidanylidene)benzo[b][1,4]benzothiazepine-3-carboxamide

> <PUBCHEM_IUPAC_TRADITIONAL_NAME>
5-ethyl-6,11-diketo-N-piperonyl-benzo[b][1,4]benzothiazepine-3-carboxamide

> <PUBCHEM_IUPAC_INCHI>
InChI=1S/C24H20N2O5S/c1-2-26-18-12-16(23(27)25-13-15-7-9-19-20(11-15)31-14-30-19)8-10-22(18)32(29)21-6-4-3-5-17(21)24(26)28/h3-12H,2,13-14H2,1H3,(H,25,27)

> <PUBCHEM_IUPAC_INCHIKEY>
KCLNUWOIPKUVNV-UHFFFAOYSA-N

> <PUBCHEM_XLOGP3_AA>
2.8

> <PUBCHEM_EXACT_MASS>
448.10929292

> <PUBCHEM_MOLECULAR_FORMULA>
C24H20N2O5S

> <PUBCHEM_MOLECULAR_WEIGHT>
448.5

> <PUBCHEM_OPENEYE_CAN_SMILES>
CCN1C2=C(C=CC(=C2)C(=O)NCC3=CC4=C(C=C3)OCO4)S(=O)C5=CC=CC=C5C1=O

> <PUBCHEM_OPENEYE_ISO_SMILES>
CCN1C2=C(C=CC(=C2)C(=O)NCC3=CC4=C(C=C3)OCO4)S(=O)C5=CC=CC=C5C1=O

> <PUBCHEM_CACTVS_TPSA>
104

> <PUBCHEM_MONOISOTOPIC_WEIGHT>
448.10929292

> <PUBCHEM_TOTAL_CHARGE>
0

> <PUBCHEM_HEAVY_ATOM_COUNT>
32

> <PUBCHEM_ATOM_DEF_STEREO_COUNT>
0

> <PUBCHEM_ATOM_UDEF_STEREO_COUNT>
1

> <PUBCHEM_BOND_DEF_STEREO_COUNT>
0

> <PUBCHEM_BOND_UDEF_STEREO_COUNT>
0

> <PUBCHEM_ISOTOPIC_ATOM_COUNT>
0

> <PUBCHEM_COMPONENT_COUNT>
1

> <PUBCHEM_CACTVS_TAUTO_COUNT>
-1

> <PUBCHEM_COORDINATE_TYPE>
1
5
255

> <PUBCHEM_BONDANNOTATIONS>
1  13  3
10  17  8
11  13  8
11  19  8
13  20  8
15  16  8
16  18  8
17  18  8
19  25  8
20  26  8
24  27  8
24  30  8
25  26  8
27  28  8
28  29  8
29  31  8
30  31  8
9  10  8
9  15  8

$$$$
