164609017
  -OEChem-09292322012D

 61 62  0     1  0  0  0  0  0999 V2000
    4.0015    5.9357    0.0000 S   0  0  0  0  0  0  0  0  0  0  0  0
    4.9720    0.4412    0.0000 O   0  0  0  0  0  0  0  0  0  0  0  0
    5.8381   -1.0588    0.0000 N   0  0  0  0  0  0  0  0  0  0  0  0
    6.7041    0.4412    0.0000 N   0  0  0  0  0  0  0  0  0  0  0  0
    5.8381    1.9412    0.0000 N   0  0  0  0  0  0  0  0  0  0  0  0
    2.5233    5.2776    0.0000 N   0  0  0  0  0  0  0  0  0  0  0  0
    7.5701    1.9412    0.0000 N   0  0  0  0  0  0  0  0  0  0  0  0
    2.6166    7.0572    0.0000 N   0  0  0  0  0  0  0  0  0  0  0  0
    4.9720   -2.5588    0.0000 C   0  0  3  0  0  0  0  0  0  0  0  0
    4.1060   -3.0588    0.0000 C   0  0  0  0  0  0  0  0  0  0  0  0
    4.1060   -4.0588    0.0000 C   0  0  0  0  0  0  0  0  0  0  0  0
    4.9720   -1.5588    0.0000 C   0  0  0  0  0  0  0  0  0  0  0  0
    3.2400   -4.5588    0.0000 C   0  0  0  0  0  0  0  0  0  0  0  0
    5.8381   -3.0588    0.0000 C   0  0  0  0  0  0  0  0  0  0  0  0
    3.2400   -5.5588    0.0000 C   0  0  0  0  0  0  0  0  0  0  0  0
    4.1060   -6.0588    0.0000 C   0  0  0  0  0  0  0  0  0  0  0  0
    2.3740   -6.0588    0.0000 C   0  0  0  0  0  0  0  0  0  0  0  0
    5.8381   -0.0588    0.0000 C   0  0  0  0  0  0  0  0  0  0  0  0
    4.9720    3.4412    0.0000 C   0  0  0  0  0  0  0  0  0  0  0  0
    4.9720    4.4412    0.0000 C   0  0  0  0  0  0  0  0  0  0  0  0
    4.1060   -7.0588    0.0000 C   0  0  0  0  0  0  0  0  0  0  0  0
    2.3740   -7.0588    0.0000 C   0  0  0  0  0  0  0  0  0  0  0  0
    5.8381    2.9412    0.0000 C   0  0  0  0  0  0  0  0  0  0  0  0
    4.1060    4.9412    0.0000 C   0  0  0  0  0  0  0  0  0  0  0  0
    3.2400   -7.5588    0.0000 C   0  0  0  0  0  0  0  0  0  0  0  0
    6.7041    1.4412    0.0000 C   0  0  0  0  0  0  0  0  0  0  0  0
    3.1925    4.5345    0.0000 C   0  0  0  0  0  0  0  0  0  0  0  0
    2.9846    3.5563    0.0000 C   0  0  0  0  0  0  0  0  0  0  0  0
    3.0233    6.1436    0.0000 C   0  0  0  0  0  0  0  0  0  0  0  0
    4.9720   -3.1788    0.0000 H   0  0  0  0  0  0  0  0  0  0  0  0
    3.8940   -2.4762    0.0000 H   0  0  0  0  0  0  0  0  0  0  0  0
    3.4954   -3.1665    0.0000 H   0  0  0  0  0  0  0  0  0  0  0  0
    4.3181   -4.6414    0.0000 H   0  0  0  0  0  0  0  0  0  0  0  0
    4.7166   -3.9511    0.0000 H   0  0  0  0  0  0  0  0  0  0  0  0
    4.7600   -0.9762    0.0000 H   0  0  0  0  0  0  0  0  0  0  0  0
    4.3615   -1.6664    0.0000 H   0  0  0  0  0  0  0  0  0  0  0  0
    3.0279   -3.9762    0.0000 H   0  0  0  0  0  0  0  0  0  0  0  0
    2.6294   -4.6664    0.0000 H   0  0  0  0  0  0  0  0  0  0  0  0
    5.5281   -3.5957    0.0000 H   0  0  0  0  0  0  0  0  0  0  0  0
    6.3750   -3.3688    0.0000 H   0  0  0  0  0  0  0  0  0  0  0  0
    6.1481   -2.5218    0.0000 H   0  0  0  0  0  0  0  0  0  0  0  0
    6.3750   -1.3688    0.0000 H   0  0  0  0  0  0  0  0  0  0  0  0
    4.6430   -5.7488    0.0000 H   0  0  0  0  0  0  0  0  0  0  0  0
    1.8370   -5.7488    0.0000 H   0  0  0  0  0  0  0  0  0  0  0  0
    4.3615    3.5489    0.0000 H   0  0  0  0  0  0  0  0  0  0  0  0
    4.7600    2.8586    0.0000 H   0  0  0  0  0  0  0  0  0  0  0  0
    5.5826    4.3336    0.0000 H   0  0  0  0  0  0  0  0  0  0  0  0
    5.1841    5.0238    0.0000 H   0  0  0  0  0  0  0  0  0  0  0  0
    4.6430   -7.3688    0.0000 H   0  0  0  0  0  0  0  0  0  0  0  0
    1.8370   -7.3688    0.0000 H   0  0  0  0  0  0  0  0  0  0  0  0
    6.4486    2.8335    0.0000 H   0  0  0  0  0  0  0  0  0  0  0  0
    6.0501    3.5238    0.0000 H   0  0  0  0  0  0  0  0  0  0  0  0
    7.2410    0.1312    0.0000 H   0  0  0  0  0  0  0  0  0  0  0  0
    3.2400   -8.1788    0.0000 H   0  0  0  0  0  0  0  0  0  0  0  0
    2.3781    3.6852    0.0000 H   0  0  0  0  0  0  0  0  0  0  0  0
    2.8556    2.9499    0.0000 H   0  0  0  0  0  0  0  0  0  0  0  0
    3.5910    3.4274    0.0000 H   0  0  0  0  0  0  0  0  0  0  0  0
    7.5701    2.5612    0.0000 H   0  0  0  0  0  0  0  0  0  0  0  0
    8.1070    1.6312    0.0000 H   0  0  0  0  0  0  0  0  0  0  0  0
    2.0000    7.1220    0.0000 H   0  0  0  0  0  0  0  0  0  0  0  0
    2.9810    7.5588    0.0000 H   0  0  0  0  0  0  0  0  0  0  0  0
  1 24  1  0  0  0  0
  1 29  1  0  0  0  0
  2 18  2  0  0  0  0
  3 12  1  0  0  0  0
  3 18  1  0  0  0  0
  3 42  1  0  0  0  0
  4 18  1  0  0  0  0
  4 26  1  0  0  0  0
  4 53  1  0  0  0  0
  5 23  1  0  0  0  0
  5 26  2  0  0  0  0
  6 27  1  0  0  0  0
  6 29  2  0  0  0  0
  7 26  1  0  0  0  0
  7 58  1  0  0  0  0
  7 59  1  0  0  0  0
  8 29  1  0  0  0  0
  8 60  1  0  0  0  0
  8 61  1  0  0  0  0
  9 10  1  0  0  0  0
  9 12  1  0  0  0  0
  9 14  1  0  0  0  0
  9 30  1  0  0  0  0
 10 11  1  0  0  0  0
 10 31  1  0  0  0  0
 10 32  1  0  0  0  0
 11 13  1  0  0  0  0
 11 33  1  0  0  0  0
 11 34  1  0  0  0  0
 12 35  1  0  0  0  0
 12 36  1  0  0  0  0
 13 15  1  0  0  0  0
 13 37  1  0  0  0  0
 13 38  1  0  0  0  0
 14 39  1  0  0  0  0
 14 40  1  0  0  0  0
 14 41  1  0  0  0  0
 15 16  2  0  0  0  0
 15 17  1  0  0  0  0
 16 21  1  0  0  0  0
 16 43  1  0  0  0  0
 17 22  2  0  0  0  0
 17 44  1  0  0  0  0
 19 20  1  0  0  0  0
 19 23  1  0  0  0  0
 19 45  1  0  0  0  0
 19 46  1  0  0  0  0
 20 24  1  0  0  0  0
 20 47  1  0  0  0  0
 20 48  1  0  0  0  0
 21 25  2  0  0  0  0
 21 49  1  0  0  0  0
 22 25  1  0  0  0  0
 22 50  1  0  0  0  0
 23 51  1  0  0  0  0
 23 52  1  0  0  0  0
 24 27  2  0  0  0  0
 25 54  1  0  0  0  0
 27 28  1  0  0  0  0
 28 55  1  0  0  0  0
 28 56  1  0  0  0  0
 28 57  1  0  0  0  0
M  END
> <PUBCHEM_COMPOUND_CID>
164609017

> <PUBCHEM_COMPOUND_CANONICALIZED>
1

> <PUBCHEM_CACTVS_COMPLEXITY>
511

> <PUBCHEM_CACTVS_HBOND_ACCEPTOR>
5

> <PUBCHEM_CACTVS_HBOND_DONOR>
4

> <PUBCHEM_CACTVS_ROTATABLE_BOND>
11

> <PUBCHEM_CACTVS_SUBSKEYS>
AAADcfB7oABAAAAAAAAAAAAAAAAAAWAAAAAwAAAAAAAAAAABwAAAHgQQAAAADQjBXgQzkZLIEAisAyRidAAC8KlhCDkJmJQ4QIiIICLgkRCEIAAolwJIyCcQgMAOAAAAAAAAAAAAAAAAAAAAAAAAAAAAAA==

> <PUBCHEM_IUPAC_OPENEYE_NAME>
1-[N'-[3-(2-amino-4-methyl-thiazol-5-yl)propyl]carbamimidoyl]-3-(2-methyl-5-phenyl-pentyl)urea

> <PUBCHEM_IUPAC_CAS_NAME>
1-[amino-[3-(2-amino-4-methyl-5-thiazolyl)propylimino]methyl]-3-(2-methyl-5-phenylpentyl)urea

> <PUBCHEM_IUPAC_NAME_MARKUP>
1-[<I>N</I>&apos;-[3-(2-amino-4-methyl-1,3-thiazol-5-yl)propyl]carbamimidoyl]-3-(2-methyl-5-phenylpentyl)urea

> <PUBCHEM_IUPAC_NAME>
1-[N'-[3-(2-amino-4-methyl-1,3-thiazol-5-yl)propyl]carbamimidoyl]-3-(2-methyl-5-phenylpentyl)urea

> <PUBCHEM_IUPAC_SYSTEMATIC_NAME>
1-[N'-[3-(2-azanyl-4-methyl-1,3-thiazol-5-yl)propyl]carbamimidoyl]-3-(2-methyl-5-phenyl-pentyl)urea

> <PUBCHEM_IUPAC_TRADITIONAL_NAME>
1-[N'-[3-(2-amino-4-methyl-thiazol-5-yl)propyl]amidino]-3-(2-methyl-5-phenyl-pentyl)urea

> <PUBCHEM_IUPAC_INCHI>
InChI=1S/C21H32N6OS/c1-15(8-6-11-17-9-4-3-5-10-17)14-25-21(28)27-19(22)24-13-7-12-18-16(2)26-20(23)29-18/h3-5,9-10,15H,6-8,11-14H2,1-2H3,(H2,23,26)(H4,22,24,25,27,28)

> <PUBCHEM_IUPAC_INCHIKEY>
TYUKINNXLNULMD-UHFFFAOYSA-N

> <PUBCHEM_XLOGP3_AA>
4.3

> <PUBCHEM_EXACT_MASS>
416.23583084

> <PUBCHEM_MOLECULAR_FORMULA>
C21H32N6OS

> <PUBCHEM_MOLECULAR_WEIGHT>
416.6

> <PUBCHEM_OPENEYE_CAN_SMILES>
CC1=C(SC(=N1)N)CCCN=C(N)NC(=O)NCC(C)CCCC2=CC=CC=C2

> <PUBCHEM_OPENEYE_ISO_SMILES>
CC1=C(SC(=N1)N)CCCN=C(N)NC(=O)NCC(C)CCCC2=CC=CC=C2

> <PUBCHEM_CACTVS_TPSA>
147

> <PUBCHEM_MONOISOTOPIC_WEIGHT>
416.23583084

> <PUBCHEM_TOTAL_CHARGE>
0

> <PUBCHEM_HEAVY_ATOM_COUNT>
29

> <PUBCHEM_ATOM_DEF_STEREO_COUNT>
0

> <PUBCHEM_ATOM_UDEF_STEREO_COUNT>
1

> <PUBCHEM_BOND_DEF_STEREO_COUNT>
0

> <PUBCHEM_BOND_UDEF_STEREO_COUNT>
0

> <PUBCHEM_ISOTOPIC_ATOM_COUNT>
0

> <PUBCHEM_COMPONENT_COUNT>
1

> <PUBCHEM_CACTVS_TAUTO_COUNT>
-1

> <PUBCHEM_COORDINATE_TYPE>
1
5
255

> <PUBCHEM_BONDANNOTATIONS>
1  24  8
1  29  8
15  16  8
15  17  8
16  21  8
17  22  8
21  25  8
22  25  8
24  27  8
6  27  8
6  29  8
9  14  3

$$$$
