137640201
  -OEChem-09292322392D

 57 60  0     0  0  0  0  0  0999 V2000
    6.3981    2.7327    0.0000 O   0  0  0  0  0  0  0  0  0  0  0  0
    6.3981   -0.2673    0.0000 N   0  0  0  0  0  0  0  0  0  0  0  0
    4.6660    2.7327    0.0000 N   0  0  0  0  0  0  0  0  0  0  0  0
    8.1301   -1.2673    0.0000 C   0  0  0  0  0  0  0  0  0  0  0  0
    8.1301   -0.2673    0.0000 C   0  0  0  0  0  0  0  0  0  0  0  0
    7.2641   -1.7673    0.0000 C   0  0  0  0  0  0  0  0  0  0  0  0
    7.2641    0.2327    0.0000 C   0  0  0  0  0  0  0  0  0  0  0  0
    6.3981   -1.2673    0.0000 C   0  0  0  0  0  0  0  0  0  0  0  0
    8.9962   -1.7673    0.0000 C   0  0  0  0  0  0  0  0  0  0  0  0
    5.5321    0.2327    0.0000 C   0  0  0  0  0  0  0  0  0  0  0  0
    5.5321    1.2327    0.0000 C   0  0  0  0  0  0  0  0  0  0  0  0
    4.6660    1.7327    0.0000 C   0  0  0  0  0  0  0  0  0  0  0  0
    8.9962   -2.7673    0.0000 C   0  0  0  0  0  0  0  0  0  0  0  0
    3.8000    3.2327    0.0000 C   0  0  0  0  0  0  0  0  0  0  0  0
    5.5321    3.2327    0.0000 C   0  0  0  0  0  0  0  0  0  0  0  0
    5.5321    4.2327    0.0000 C   0  0  0  0  0  0  0  0  0  0  0  0
    3.8000    4.2327    0.0000 C   0  0  0  0  0  0  0  0  0  0  0  0
    4.6660    4.7327    0.0000 C   0  0  0  0  0  0  0  0  0  0  0  0
    9.8622   -3.2673    0.0000 C   0  0  0  0  0  0  0  0  0  0  0  0
    8.1301   -3.2673    0.0000 C   0  0  0  0  0  0  0  0  0  0  0  0
    2.9061    2.6980    0.0000 C   0  0  0  0  0  0  0  0  0  0  0  0
    2.9061    4.7673    0.0000 C   0  0  0  0  0  0  0  0  0  0  0  0
    9.8622   -4.2673    0.0000 C   0  0  0  0  0  0  0  0  0  0  0  0
    8.1301   -4.2673    0.0000 C   0  0  0  0  0  0  0  0  0  0  0  0
    8.9962   -4.7673    0.0000 C   0  0  0  0  0  0  0  0  0  0  0  0
    2.0000    3.2118    0.0000 C   0  0  0  0  0  0  0  0  0  0  0  0
    2.0000    4.2535    0.0000 C   0  0  0  0  0  0  0  0  0  0  0  0
    8.1301   -1.8873    0.0000 H   0  0  0  0  0  0  0  0  0  0  0  0
    8.7407   -0.3750    0.0000 H   0  0  0  0  0  0  0  0  0  0  0  0
    8.3422    0.3153    0.0000 H   0  0  0  0  0  0  0  0  0  0  0  0
    6.8656   -2.2423    0.0000 H   0  0  0  0  0  0  0  0  0  0  0  0
    7.6626   -2.2423    0.0000 H   0  0  0  0  0  0  0  0  0  0  0  0
    7.6626    0.7076    0.0000 H   0  0  0  0  0  0  0  0  0  0  0  0
    6.8656    0.7076    0.0000 H   0  0  0  0  0  0  0  0  0  0  0  0
    5.7875   -1.1597    0.0000 H   0  0  0  0  0  0  0  0  0  0  0  0
    6.1860   -1.8499    0.0000 H   0  0  0  0  0  0  0  0  0  0  0  0
    9.6067   -1.8750    0.0000 H   0  0  0  0  0  0  0  0  0  0  0  0
    9.2082   -1.1847    0.0000 H   0  0  0  0  0  0  0  0  0  0  0  0
    4.9215    0.3403    0.0000 H   0  0  0  0  0  0  0  0  0  0  0  0
    5.3200   -0.3499    0.0000 H   0  0  0  0  0  0  0  0  0  0  0  0
    6.1426    1.1250    0.0000 H   0  0  0  0  0  0  0  0  0  0  0  0
    5.7441    1.8153    0.0000 H   0  0  0  0  0  0  0  0  0  0  0  0
    4.0555    1.8403    0.0000 H   0  0  0  0  0  0  0  0  0  0  0  0
    4.4540    1.1501    0.0000 H   0  0  0  0  0  0  0  0  0  0  0  0
    6.1426    4.1250    0.0000 H   0  0  0  0  0  0  0  0  0  0  0  0
    5.7441    4.8153    0.0000 H   0  0  0  0  0  0  0  0  0  0  0  0
    5.0646    5.2076    0.0000 H   0  0  0  0  0  0  0  0  0  0  0  0
    4.2675    5.2076    0.0000 H   0  0  0  0  0  0  0  0  0  0  0  0
   10.3991   -2.9573    0.0000 H   0  0  0  0  0  0  0  0  0  0  0  0
    7.5932   -2.9573    0.0000 H   0  0  0  0  0  0  0  0  0  0  0  0
    2.9132    2.0780    0.0000 H   0  0  0  0  0  0  0  0  0  0  0  0
    2.9132    5.3873    0.0000 H   0  0  0  0  0  0  0  0  0  0  0  0
   10.3991   -4.5773    0.0000 H   0  0  0  0  0  0  0  0  0  0  0  0
    7.5932   -4.5773    0.0000 H   0  0  0  0  0  0  0  0  0  0  0  0
    8.9962   -5.3873    0.0000 H   0  0  0  0  0  0  0  0  0  0  0  0
    1.4643    2.8998    0.0000 H   0  0  0  0  0  0  0  0  0  0  0  0
    1.4643    4.5656    0.0000 H   0  0  0  0  0  0  0  0  0  0  0  0
  1 15  2  0  0  0  0
  2  7  1  0  0  0  0
  2  8  1  0  0  0  0
  2 10  1  0  0  0  0
  3 12  1  0  0  0  0
  3 14  1  0  0  0  0
  3 15  1  0  0  0  0
  4  5  1  0  0  0  0
  4  6  1  0  0  0  0
  4  9  1  0  0  0  0
  4 28  1  0  0  0  0
  5  7  1  0  0  0  0
  5 29  1  0  0  0  0
  5 30  1  0  0  0  0
  6  8  1  0  0  0  0
  6 31  1  0  0  0  0
  6 32  1  0  0  0  0
  7 33  1  0  0  0  0
  7 34  1  0  0  0  0
  8 35  1  0  0  0  0
  8 36  1  0  0  0  0
  9 13  1  0  0  0  0
  9 37  1  0  0  0  0
  9 38  1  0  0  0  0
 10 11  1  0  0  0  0
 10 39  1  0  0  0  0
 10 40  1  0  0  0  0
 11 12  1  0  0  0  0
 11 41  1  0  0  0  0
 11 42  1  0  0  0  0
 12 43  1  0  0  0  0
 12 44  1  0  0  0  0
 13 19  2  0  0  0  0
 13 20  1  0  0  0  0
 14 17  1  0  0  0  0
 14 21  2  0  0  0  0
 15 16  1  0  0  0  0
 16 18  1  0  0  0  0
 16 45  1  0  0  0  0
 16 46  1  0  0  0  0
 17 18  1  0  0  0  0
 17 22  2  0  0  0  0
 18 47  1  0  0  0  0
 18 48  1  0  0  0  0
 19 23  1  0  0  0  0
 19 49  1  0  0  0  0
 20 24  2  0  0  0  0
 20 50  1  0  0  0  0
 21 26  1  0  0  0  0
 21 51  1  0  0  0  0
 22 27  1  0  0  0  0
 22 52  1  0  0  0  0
 23 25  2  0  0  0  0
 23 53  1  0  0  0  0
 24 25  1  0  0  0  0
 24 54  1  0  0  0  0
 25 55  1  0  0  0  0
 26 27  2  0  0  0  0
 26 56  1  0  0  0  0
 27 57  1  0  0  0  0
M  END
> <PUBCHEM_COMPOUND_CID>
137640201

> <PUBCHEM_COMPOUND_CANONICALIZED>
1

> <PUBCHEM_CACTVS_COMPLEXITY>
465

> <PUBCHEM_CACTVS_HBOND_ACCEPTOR>
2

> <PUBCHEM_CACTVS_HBOND_DONOR>
0

> <PUBCHEM_CACTVS_ROTATABLE_BOND>
6

> <PUBCHEM_CACTVS_SUBSKEYS>
AAADceB7IAAAAAAAAAAAAAAAAAAAAAAAAAA8eIEAAAAAAACxQAAAHgAAAAAADQjBmAQwwIMAAACIAiVSUACCAAAhAgAIiAEIZIgIIDLA0ZGEIAhghgDIyAcYicCeAAAAAAACAAAAAAAAAAQAAAAAAAAAAA==

> <PUBCHEM_IUPAC_OPENEYE_NAME>
1-[3-(4-benzyl-1-piperidyl)propyl]-3,4-dihydroquinolin-2-one

> <PUBCHEM_IUPAC_CAS_NAME>
1-[3-[4-(phenylmethyl)-1-piperidinyl]propyl]-3,4-dihydroquinolin-2-one

> <PUBCHEM_IUPAC_NAME_MARKUP>
1-[3-(4-benzylpiperidin-1-yl)propyl]-3,4-dihydroquinolin-2-one

> <PUBCHEM_IUPAC_NAME>
1-[3-(4-benzylpiperidin-1-yl)propyl]-3,4-dihydroquinolin-2-one

> <PUBCHEM_IUPAC_SYSTEMATIC_NAME>
1-[3-[4-(phenylmethyl)piperidin-1-yl]propyl]-3,4-dihydroquinolin-2-one

> <PUBCHEM_IUPAC_TRADITIONAL_NAME>
1-[3-(4-benzylpiperidino)propyl]-3,4-dihydrocarbostyril

> <PUBCHEM_IUPAC_INCHI>
InChI=1S/C24H30N2O/c27-24-12-11-22-9-4-5-10-23(22)26(24)16-6-15-25-17-13-21(14-18-25)19-20-7-2-1-3-8-20/h1-5,7-10,21H,6,11-19H2

> <PUBCHEM_IUPAC_INCHIKEY>
YCGXHEJETHPGPD-UHFFFAOYSA-N

> <PUBCHEM_XLOGP3_AA>
4.3

> <PUBCHEM_EXACT_MASS>
362.235813585

> <PUBCHEM_MOLECULAR_FORMULA>
C24H30N2O

> <PUBCHEM_MOLECULAR_WEIGHT>
362.5

> <PUBCHEM_OPENEYE_CAN_SMILES>
C1CN(CCC1CC2=CC=CC=C2)CCCN3C(=O)CCC4=CC=CC=C43

> <PUBCHEM_OPENEYE_ISO_SMILES>
C1CN(CCC1CC2=CC=CC=C2)CCCN3C(=O)CCC4=CC=CC=C43

> <PUBCHEM_CACTVS_TPSA>
23.6

> <PUBCHEM_MONOISOTOPIC_WEIGHT>
362.235813585

> <PUBCHEM_TOTAL_CHARGE>
0

> <PUBCHEM_HEAVY_ATOM_COUNT>
27

> <PUBCHEM_ATOM_DEF_STEREO_COUNT>
0

> <PUBCHEM_ATOM_UDEF_STEREO_COUNT>
0

> <PUBCHEM_BOND_DEF_STEREO_COUNT>
0

> <PUBCHEM_BOND_UDEF_STEREO_COUNT>
0

> <PUBCHEM_ISOTOPIC_ATOM_COUNT>
0

> <PUBCHEM_COMPONENT_COUNT>
1

> <PUBCHEM_CACTVS_TAUTO_COUNT>
-1

> <PUBCHEM_COORDINATE_TYPE>
1
5
255

> <PUBCHEM_BONDANNOTATIONS>
13  19  8
13  20  8
14  17  8
14  21  8
17  22  8
19  23  8
20  24  8
21  26  8
22  27  8
23  25  8
24  25  8
26  27  8

$$$$
