71563084
  -OEChem-09292322052D

 51 54  0     1  0  0  0  0  0999 V2000
    2.0000   -1.1692    0.0000 F   0  0  0  0  0  0  0  0  0  0  0  0
    2.3608   -2.5366    0.0000 F   0  0  0  0  0  0  0  0  0  0  0  0
    3.7282   -2.1759    0.0000 F   0  0  0  0  0  0  0  0  0  0  0  0
    6.8707    0.0441    0.0000 O   0  0  0  0  0  0  0  0  0  0  0  0
   12.6854    1.2004    0.0000 O   0  0  0  0  0  0  0  0  0  0  0  0
   10.9116    2.2246    0.0000 O   0  0  0  0  0  0  0  0  0  0  0  0
    3.3674   -0.8085    0.0000 O   0  0  0  0  0  0  0  0  0  0  0  0
    9.1674   -1.8447    0.0000 N   0  0  3  0  0  0  0  0  0  0  0  0
    9.1674   -0.8447    0.0000 C   0  0  2  0  0  0  0  0  0  0  0  0
    7.3674   -0.8239    0.0000 C   0  0  1  0  0  0  0  0  0  0  0  0
    8.2735   -0.3100    0.0000 C   0  0  0  0  0  0  0  0  0  0  0  0
    7.3674   -1.8655    0.0000 C   0  0  0  0  0  0  0  0  0  0  0  0
    8.2735   -2.3794    0.0000 C   0  0  0  0  0  0  0  0  0  0  0  0
   10.0334   -2.3447    0.0000 C   0  0  0  0  0  0  0  0  0  0  0  0
   10.0334   -0.3447    0.0000 C   0  0  0  0  0  0  0  0  0  0  0  0
   10.8995   -1.8447    0.0000 C   0  0  0  0  0  0  0  0  0  0  0  0
   10.8995   -0.8447    0.0000 C   0  0  0  0  0  0  0  0  0  0  0  0
    6.3674   -0.8200    0.0000 C   0  0  0  0  0  0  0  0  0  0  0  0
   10.0174    0.6968    0.0000 C   0  0  0  0  0  0  0  0  0  0  0  0
   11.8095   -0.3378    0.0000 C   0  0  0  0  0  0  0  0  0  0  0  0
    5.8641   -1.6841    0.0000 C   0  0  0  0  0  0  0  0  0  0  0  0
    5.8708    0.0479    0.0000 C   0  0  0  0  0  0  0  0  0  0  0  0
   10.9154    1.2246    0.0000 C   0  0  0  0  0  0  0  0  0  0  0  0
   11.8175    0.7038    0.0000 C   0  0  0  0  0  0  0  0  0  0  0  0
    4.8641   -1.6802    0.0000 C   0  0  0  0  0  0  0  0  0  0  0  0
    4.8708    0.0518    0.0000 C   0  0  0  0  0  0  0  0  0  0  0  0
    4.3674   -0.8123    0.0000 C   0  0  0  0  0  0  0  0  0  0  0  0
   13.5495    0.6971    0.0000 C   0  0  0  0  0  0  0  0  0  0  0  0
    2.8641   -1.6725    0.0000 C   0  0  0  0  0  0  0  0  0  0  0  0
    9.1740    0.0053    0.0000 H   0  0  0  0  0  0  0  0  0  0  0  0
    8.6781    0.1598    0.0000 H   0  0  0  0  0  0  0  0  0  0  0  0
    7.8798    0.1690    0.0000 H   0  0  0  0  0  0  0  0  0  0  0  0
    6.7565   -1.7594    0.0000 H   0  0  0  0  0  0  0  0  0  0  0  0
    7.1583   -2.4492    0.0000 H   0  0  0  0  0  0  0  0  0  0  0  0
    7.8798   -2.8584    0.0000 H   0  0  0  0  0  0  0  0  0  0  0  0
    8.6781   -2.8491    0.0000 H   0  0  0  0  0  0  0  0  0  0  0  0
    9.6349   -2.8196    0.0000 H   0  0  0  0  0  0  0  0  0  0  0  0
   10.4320   -2.8196    0.0000 H   0  0  0  0  0  0  0  0  0  0  0  0
   11.1115   -2.4273    0.0000 H   0  0  0  0  0  0  0  0  0  0  0  0
   11.5100   -1.7370    0.0000 H   0  0  0  0  0  0  0  0  0  0  0  0
    9.4769    1.0006    0.0000 H   0  0  0  0  0  0  0  0  0  0  0  0
    7.1828    0.5798    0.0000 H   0  0  0  0  0  0  0  0  0  0  0  0
   12.3428   -0.6540    0.0000 H   0  0  0  0  0  0  0  0  0  0  0  0
    6.1720   -2.2222    0.0000 H   0  0  0  0  0  0  0  0  0  0  0  0
    6.1828    0.5837    0.0000 H   0  0  0  0  0  0  0  0  0  0  0  0
    4.5520   -2.2160    0.0000 H   0  0  0  0  0  0  0  0  0  0  0  0
    4.5628    0.5899    0.0000 H   0  0  0  0  0  0  0  0  0  0  0  0
   11.4473    2.5366    0.0000 H   0  0  0  0  0  0  0  0  0  0  0  0
   13.2375    0.1613    0.0000 H   0  0  0  0  0  0  0  0  0  0  0  0
   14.0853    0.3850    0.0000 H   0  0  0  0  0  0  0  0  0  0  0  0
   13.8616    1.2328    0.0000 H   0  0  0  0  0  0  0  0  0  0  0  0
  1 29  1  0  0  0  0
  2 29  1  0  0  0  0
  3 29  1  0  0  0  0
 10  4  1  1  0  0  0
  4 42  1  0  0  0  0
  5 24  1  0  0  0  0
  5 28  1  0  0  0  0
  6 23  1  0  0  0  0
  6 48  1  0  0  0  0
  7 27  1  0  0  0  0
  7 29  1  0  0  0  0
  8  9  1  0  0  0  0
  8 13  1  0  0  0  0
  8 14  1  0  0  0  0
  9 11  1  0  0  0  0
  9 15  1  0  0  0  0
  9 30  1  1  0  0  0
 10 11  1  0  0  0  0
 10 12  1  0  0  0  0
 10 18  1  0  0  0  0
 11 31  1  0  0  0  0
 11 32  1  0  0  0  0
 12 13  1  0  0  0  0
 12 33  1  0  0  0  0
 12 34  1  0  0  0  0
 13 35  1  0  0  0  0
 13 36  1  0  0  0  0
 14 16  1  0  0  0  0
 14 37  1  0  0  0  0
 14 38  1  0  0  0  0
 15 17  1  0  0  0  0
 15 19  2  0  0  0  0
 16 17  1  0  0  0  0
 16 39  1  0  0  0  0
 16 40  1  0  0  0  0
 17 20  2  0  0  0  0
 18 21  2  0  0  0  0
 18 22  1  0  0  0  0
 19 23  1  0  0  0  0
 19 41  1  0  0  0  0
 20 24  1  0  0  0  0
 20 43  1  0  0  0  0
 21 25  1  0  0  0  0
 21 44  1  0  0  0  0
 22 26  2  0  0  0  0
 22 45  1  0  0  0  0
 23 24  2  0  0  0  0
 25 27  2  0  0  0  0
 25 46  1  0  0  0  0
 26 27  1  0  0  0  0
 26 47  1  0  0  0  0
 28 49  1  0  0  0  0
 28 50  1  0  0  0  0
 28 51  1  0  0  0  0
M  END
> <PUBCHEM_COMPOUND_CID>
71563084

> <PUBCHEM_COMPOUND_CANONICALIZED>
1

> <PUBCHEM_CACTVS_COMPLEXITY>
569

> <PUBCHEM_CACTVS_HBOND_ACCEPTOR>
8

> <PUBCHEM_CACTVS_HBOND_DONOR>
2

> <PUBCHEM_CACTVS_ROTATABLE_BOND>
3

> <PUBCHEM_CACTVS_SUBSKEYS>
AAADceB6OYAAAAAAAAAAAAAAAAAAAAAAAAA8eIEAAAAAAACxQAAAHwAACAAADGzBmBYyBoMABgCAAiBCAACCCAAgIAAIiAAOjIgNJiKGsRuEcCtmwBGLuAew8P8OoAABAAAQQABAAAIAACCAAAAAAAAAAA==

> <PUBCHEM_IUPAC_OPENEYE_NAME>
(2R,11bR)-9-methoxy-2-[4-(trifluoromethoxy)phenyl]-1,3,4,6,7,11b-hexahydrobenzo[a]quinolizine-2,10-diol

> <PUBCHEM_IUPAC_CAS_NAME>
(2R,11bR)-9-methoxy-2-[4-(trifluoromethoxy)phenyl]-1,3,4,6,7,11b-hexahydrobenzo[a]quinolizine-2,10-diol

> <PUBCHEM_IUPAC_NAME_MARKUP>
(2<I>R</I>,11<I>b</I><I>R</I>)-9-methoxy-2-[4-(trifluoromethoxy)phenyl]-1,3,4,6,7,11<I>b</I>-hexahydrobenzo[a]quinolizine-2,10-diol

> <PUBCHEM_IUPAC_NAME>
(2R,11bR)-9-methoxy-2-[4-(trifluoromethoxy)phenyl]-1,3,4,6,7,11b-hexahydrobenzo[a]quinolizine-2,10-diol

> <PUBCHEM_IUPAC_SYSTEMATIC_NAME>
(2R,11bR)-9-methoxy-2-[4-(trifluoromethyloxy)phenyl]-1,3,4,6,7,11b-hexahydrobenzo[a]quinolizine-2,10-diol

> <PUBCHEM_IUPAC_TRADITIONAL_NAME>
(2R,11bR)-9-methoxy-2-[4-(trifluoromethoxy)phenyl]-1,3,4,6,7,11b-hexahydrobenzo[a]quinolizine-2,10-diol

> <PUBCHEM_IUPAC_INCHI>
InChI=1S/C21H22F3NO4/c1-28-19-10-13-6-8-25-9-7-20(27,12-17(25)16(13)11-18(19)26)14-2-4-15(5-3-14)29-21(22,23)24/h2-5,10-11,17,26-27H,6-9,12H2,1H3/t17-,20-/m1/s1

> <PUBCHEM_IUPAC_INCHIKEY>
WCWNXHJYVSNEHQ-YLJYHZDGSA-N

> <PUBCHEM_XLOGP3_AA>
3.8

> <PUBCHEM_EXACT_MASS>
409.15009267

> <PUBCHEM_MOLECULAR_FORMULA>
C21H22F3NO4

> <PUBCHEM_MOLECULAR_WEIGHT>
409.4

> <PUBCHEM_OPENEYE_CAN_SMILES>
COC1=C(C=C2C3CC(CCN3CCC2=C1)(C4=CC=C(C=C4)OC(F)(F)F)O)O

> <PUBCHEM_OPENEYE_ISO_SMILES>
COC1=C(C=C2[C@H]3C[C@](CCN3CCC2=C1)(C4=CC=C(C=C4)OC(F)(F)F)O)O

> <PUBCHEM_CACTVS_TPSA>
62.2

> <PUBCHEM_MONOISOTOPIC_WEIGHT>
409.15009267

> <PUBCHEM_TOTAL_CHARGE>
0

> <PUBCHEM_HEAVY_ATOM_COUNT>
29

> <PUBCHEM_ATOM_DEF_STEREO_COUNT>
2

> <PUBCHEM_ATOM_UDEF_STEREO_COUNT>
0

> <PUBCHEM_BOND_DEF_STEREO_COUNT>
0

> <PUBCHEM_BOND_UDEF_STEREO_COUNT>
0

> <PUBCHEM_ISOTOPIC_ATOM_COUNT>
0

> <PUBCHEM_COMPONENT_COUNT>
1

> <PUBCHEM_CACTVS_TAUTO_COUNT>
-1

> <PUBCHEM_COORDINATE_TYPE>
1
5
255

> <PUBCHEM_BONDANNOTATIONS>
15  17  8
15  19  8
17  20  8
18  21  8
18  22  8
19  23  8
20  24  8
21  25  8
22  26  8
23  24  8
25  27  8
26  27  8
10  4  5
9  30  5

$$$$
