164618338
  -OEChem-09292322432D

 73 76  0     1  0  0  0  0  0999 V2000
    2.5289    2.6247    0.0000 Cl  0  0  0  0  0  0  0  0  0  0  0  0
    8.0277   -3.7394    0.0000 O   0  0  0  0  0  0  0  0  0  0  0  0
    5.8090   -0.2461    0.0000 O   0  0  0  0  0  0  0  0  0  0  0  0
    2.9522    0.6700    0.0000 O   0  0  0  0  0  0  0  0  0  0  0  0
    6.3378    1.4033    0.0000 O   0  0  0  0  0  0  0  0  0  0  0  0
   13.2898   -3.7153    0.0000 O   0  0  0  0  0  0  0  0  0  0  0  0
    3.6956   -3.2561    0.0000 N   0  0  3  0  0  0  0  0  0  0  0  0
    4.1162   -0.6127    0.0000 N   0  0  0  0  0  0  0  0  0  0  0  0
   11.5578   -3.7153    0.0000 N   0  0  0  0  0  0  0  0  0  0  0  0
    3.5873   -2.2620    0.0000 C   0  0  1  0  0  0  0  0  0  0  0  0
    2.6083   -2.0579    0.0000 C   0  0  0  0  0  0  0  0  0  0  0  0
    2.7837   -3.6664    0.0000 C   0  0  0  0  0  0  0  0  0  0  0  0
    2.1117   -2.9258    0.0000 C   0  0  0  0  0  0  0  0  0  0  0  0
    4.5636   -3.7528    0.0000 C   0  0  0  0  0  0  0  0  0  0  0  0
    4.3278   -1.5900    0.0000 C   0  0  0  0  0  0  0  0  0  0  0  0
    5.4277   -3.2495    0.0000 C   0  0  0  0  0  0  0  0  0  0  0  0
    6.2956   -3.7461    0.0000 C   0  0  0  0  0  0  0  0  0  0  0  0
    7.1597   -3.2428    0.0000 C   0  0  0  0  0  0  0  0  0  0  0  0
    4.8567    0.0593    0.0000 C   0  0  0  0  0  0  0  0  0  0  0  0
    4.6450    1.0366    0.0000 C   0  0  0  0  0  0  0  0  0  0  0  0
    8.8918   -3.2361    0.0000 C   0  0  0  0  0  0  0  0  0  0  0  0
    5.3856    1.7086    0.0000 C   0  0  0  0  0  0  0  0  0  0  0  0
    3.6928    1.3420    0.0000 C   0  0  0  0  0  0  0  0  0  0  0  0
   10.6918   -2.2153    0.0000 C   0  0  0  0  0  0  0  0  0  0  0  0
    5.1739    2.6860    0.0000 C   0  0  0  0  0  0  0  0  0  0  0  0
   10.6918   -3.2153    0.0000 C   0  0  0  0  0  0  0  0  0  0  0  0
    9.7978   -3.7500    0.0000 C   0  0  0  0  0  0  0  0  0  0  0  0
   11.5578   -1.7153    0.0000 C   0  0  0  0  0  0  0  0  0  0  0  0
    8.8918   -2.1945    0.0000 C   0  0  0  0  0  0  0  0  0  0  0  0
    3.4811    2.3193    0.0000 C   0  0  0  0  0  0  0  0  0  0  0  0
   12.4238   -2.2153    0.0000 C   0  0  0  0  0  0  0  0  0  0  0  0
    9.7978   -1.6806    0.0000 C   0  0  0  0  0  0  0  0  0  0  0  0
    4.2217    2.9913    0.0000 C   0  0  0  0  0  0  0  0  0  0  0  0
    5.9145    3.3580    0.0000 C   0  0  0  0  0  0  0  0  0  0  0  0
   12.4238   -3.2153    0.0000 C   0  0  0  0  0  0  0  0  0  0  0  0
    5.7028    4.3353    0.0000 C   0  0  0  0  0  0  0  0  0  0  0  0
    2.0000    0.9753    0.0000 C   0  0  0  0  0  0  0  0  0  0  0  0
    4.1670   -2.4820    0.0000 H   0  0  0  0  0  0  0  0  0  0  0  0
    2.7977   -1.4675    0.0000 H   0  0  0  0  0  0  0  0  0  0  0  0
    2.0410   -1.8079    0.0000 H   0  0  0  0  0  0  0  0  0  0  0  0
    2.2835   -4.0328    0.0000 H   0  0  0  0  0  0  0  0  0  0  0  0
    3.0957   -4.2021    0.0000 H   0  0  0  0  0  0  0  0  0  0  0  0
    1.6087   -2.5633    0.0000 H   0  0  0  0  0  0  0  0  0  0  0  0
    1.6986   -3.3882    0.0000 H   0  0  0  0  0  0  0  0  0  0  0  0
    4.1669   -4.2293    0.0000 H   0  0  0  0  0  0  0  0  0  0  0  0
    4.9639   -4.2262    0.0000 H   0  0  0  0  0  0  0  0  0  0  0  0
    4.6584   -2.1146    0.0000 H   0  0  0  0  0  0  0  0  0  0  0  0
    4.9018   -1.3556    0.0000 H   0  0  0  0  0  0  0  0  0  0  0  0
    5.8244   -2.7730    0.0000 H   0  0  0  0  0  0  0  0  0  0  0  0
    5.0273   -2.7760    0.0000 H   0  0  0  0  0  0  0  0  0  0  0  0
    3.5258   -0.4234    0.0000 H   0  0  0  0  0  0  0  0  0  0  0  0
    5.8989   -4.2226    0.0000 H   0  0  0  0  0  0  0  0  0  0  0  0
    6.6960   -4.2195    0.0000 H   0  0  0  0  0  0  0  0  0  0  0  0
    7.5564   -2.7663    0.0000 H   0  0  0  0  0  0  0  0  0  0  0  0
    6.7594   -2.7694    0.0000 H   0  0  0  0  0  0  0  0  0  0  0  0
    9.8050   -4.3699    0.0000 H   0  0  0  0  0  0  0  0  0  0  0  0
   11.9563   -1.2403    0.0000 H   0  0  0  0  0  0  0  0  0  0  0  0
   11.1593   -1.2403    0.0000 H   0  0  0  0  0  0  0  0  0  0  0  0
    8.3560   -1.8824    0.0000 H   0  0  0  0  0  0  0  0  0  0  0  0
   13.0344   -2.3230    0.0000 H   0  0  0  0  0  0  0  0  0  0  0  0
   12.6359   -1.6327    0.0000 H   0  0  0  0  0  0  0  0  0  0  0  0
    9.8050   -1.0607    0.0000 H   0  0  0  0  0  0  0  0  0  0  0  0
    4.0904    3.5973    0.0000 H   0  0  0  0  0  0  0  0  0  0  0  0
   11.5578   -4.3353    0.0000 H   0  0  0  0  0  0  0  0  0  0  0  0
    6.2451    2.8334    0.0000 H   0  0  0  0  0  0  0  0  0  0  0  0
    6.4884    3.5924    0.0000 H   0  0  0  0  0  0  0  0  0  0  0  0
    6.7970    1.8199    0.0000 H   0  0  0  0  0  0  0  0  0  0  0  0
    6.3088    4.4665    0.0000 H   0  0  0  0  0  0  0  0  0  0  0  0
    5.5716    4.9412    0.0000 H   0  0  0  0  0  0  0  0  0  0  0  0
    5.0968    4.2040    0.0000 H   0  0  0  0  0  0  0  0  0  0  0  0
    2.1893    1.5657    0.0000 H   0  0  0  0  0  0  0  0  0  0  0  0
    1.4096    1.1647    0.0000 H   0  0  0  0  0  0  0  0  0  0  0  0
    1.8107    0.3850    0.0000 H   0  0  0  0  0  0  0  0  0  0  0  0
  1 30  1  0  0  0  0
  2 18  1  0  0  0  0
  2 21  1  0  0  0  0
  3 19  2  0  0  0  0
  4 23  1  0  0  0  0
  4 37  1  0  0  0  0
  5 22  1  0  0  0  0
  5 67  1  0  0  0  0
  6 35  2  0  0  0  0
  7 10  1  0  0  0  0
  7 12  1  0  0  0  0
  7 14  1  0  0  0  0
  8 15  1  0  0  0  0
  8 19  1  0  0  0  0
  8 51  1  0  0  0  0
  9 26  1  0  0  0  0
  9 35  1  0  0  0  0
  9 64  1  0  0  0  0
 10 11  1  0  0  0  0
 10 15  1  1  0  0  0
 10 38  1  0  0  0  0
 11 13  1  0  0  0  0
 11 39  1  0  0  0  0
 11 40  1  0  0  0  0
 12 13  1  0  0  0  0
 12 41  1  0  0  0  0
 12 42  1  0  0  0  0
 13 43  1  0  0  0  0
 13 44  1  0  0  0  0
 14 16  1  0  0  0  0
 14 45  1  0  0  0  0
 14 46  1  0  0  0  0
 15 47  1  0  0  0  0
 15 48  1  0  0  0  0
 16 17  1  0  0  0  0
 16 49  1  0  0  0  0
 16 50  1  0  0  0  0
 17 18  1  0  0  0  0
 17 52  1  0  0  0  0
 17 53  1  0  0  0  0
 18 54  1  0  0  0  0
 18 55  1  0  0  0  0
 19 20  1  0  0  0  0
 20 22  2  0  0  0  0
 20 23  1  0  0  0  0
 21 27  2  0  0  0  0
 21 29  1  0  0  0  0
 22 25  1  0  0  0  0
 23 30  2  0  0  0  0
 24 26  2  0  0  0  0
 24 28  1  0  0  0  0
 24 32  1  0  0  0  0
 25 33  2  0  0  0  0
 25 34  1  0  0  0  0
 26 27  1  0  0  0  0
 27 56  1  0  0  0  0
 28 31  1  0  0  0  0
 28 57  1  0  0  0  0
 28 58  1  0  0  0  0
 29 32  2  0  0  0  0
 29 59  1  0  0  0  0
 30 33  1  0  0  0  0
 31 35  1  0  0  0  0
 31 60  1  0  0  0  0
 31 61  1  0  0  0  0
 32 62  1  0  0  0  0
 33 63  1  0  0  0  0
 34 36  1  0  0  0  0
 34 65  1  0  0  0  0
 34 66  1  0  0  0  0
 36 68  1  0  0  0  0
 36 69  1  0  0  0  0
 36 70  1  0  0  0  0
 37 71  1  0  0  0  0
 37 72  1  0  0  0  0
 37 73  1  0  0  0  0
M  END
> <PUBCHEM_COMPOUND_CID>
164618338

> <PUBCHEM_COMPOUND_CANONICALIZED>
1

> <PUBCHEM_CACTVS_COMPLEXITY>
757

> <PUBCHEM_CACTVS_HBOND_ACCEPTOR>
6

> <PUBCHEM_CACTVS_HBOND_DONOR>
3

> <PUBCHEM_CACTVS_ROTATABLE_BOND>
11

> <PUBCHEM_CACTVS_SUBSKEYS>
AAADcfB7OAAEAAAAAAAAAAAAAAAAAWAAAAA8YIAAAAAAAACxQAAAHgIQCAAADC7hmCYyxoPABgCIAiVSUACCCAAlJ0AIiIEOb8gMZzfHt5uWeWjn9h3I+Qe4+e+eICACKgAKCABAQARUABQQAAAAAAAAAA==

> <PUBCHEM_IUPAC_OPENEYE_NAME>
5-chloro-3-ethyl-2-hydroxy-6-methoxy-N-[[(2S)-1-[4-[(2-oxo-3,4-dihydro-1H-quinolin-7-yl)oxy]butyl]pyrrolidin-2-yl]methyl]benzamide

> <PUBCHEM_IUPAC_CAS_NAME>
5-chloro-3-ethyl-2-hydroxy-6-methoxy-N-[[(2S)-1-[4-[(2-oxo-3,4-dihydro-1H-quinolin-7-yl)oxy]butyl]-2-pyrrolidinyl]methyl]benzamide

> <PUBCHEM_IUPAC_NAME_MARKUP>
5-chloro-3-ethyl-2-hydroxy-6-methoxy-<I>N</I>-[[(2<I>S</I>)-1-[4-[(2-oxo-3,4-dihydro-1<I>H</I>-quinolin-7-yl)oxy]butyl]pyrrolidin-2-yl]methyl]benzamide

> <PUBCHEM_IUPAC_NAME>
5-chloro-3-ethyl-2-hydroxy-6-methoxy-N-[[(2S)-1-[4-[(2-oxo-3,4-dihydro-1H-quinolin-7-yl)oxy]butyl]pyrrolidin-2-yl]methyl]benzamide

> <PUBCHEM_IUPAC_SYSTEMATIC_NAME>
3-chloranyl-5-ethyl-2-methoxy-6-oxidanyl-N-[[(2S)-1-[4-[(2-oxidanylidene-3,4-dihydro-1H-quinolin-7-yl)oxy]butyl]pyrrolidin-2-yl]methyl]benzamide

> <PUBCHEM_IUPAC_TRADITIONAL_NAME>
5-chloro-3-ethyl-2-hydroxy-N-[[(2S)-1-[4-[(2-keto-3,4-dihydro-1H-quinolin-7-yl)oxy]butyl]pyrrolidin-2-yl]methyl]-6-methoxy-benzamide

> <PUBCHEM_IUPAC_INCHI>
InChI=1S/C28H36ClN3O5/c1-3-18-15-22(29)27(36-2)25(26(18)34)28(35)30-17-20-7-6-13-32(20)12-4-5-14-37-21-10-8-19-9-11-24(33)31-23(19)16-21/h8,10,15-16,20,34H,3-7,9,11-14,17H2,1-2H3,(H,30,35)(H,31,33)/t20-/m0/s1

> <PUBCHEM_IUPAC_INCHIKEY>
VWTBKWKKPKFNJR-FQEVSTJZSA-N

> <PUBCHEM_XLOGP3_AA>
4.9

> <PUBCHEM_EXACT_MASS>
529.2343490

> <PUBCHEM_MOLECULAR_FORMULA>
C28H36ClN3O5

> <PUBCHEM_MOLECULAR_WEIGHT>
530.1

> <PUBCHEM_OPENEYE_CAN_SMILES>
CCC1=CC(=C(C(=C1O)C(=O)NCC2CCCN2CCCCOC3=CC4=C(CCC(=O)N4)C=C3)OC)Cl

> <PUBCHEM_OPENEYE_ISO_SMILES>
CCC1=CC(=C(C(=C1O)C(=O)NC[C@@H]2CCCN2CCCCOC3=CC4=C(CCC(=O)N4)C=C3)OC)Cl

> <PUBCHEM_CACTVS_TPSA>
100

> <PUBCHEM_MONOISOTOPIC_WEIGHT>
529.2343490

> <PUBCHEM_TOTAL_CHARGE>
0

> <PUBCHEM_HEAVY_ATOM_COUNT>
37

> <PUBCHEM_ATOM_DEF_STEREO_COUNT>
1

> <PUBCHEM_ATOM_UDEF_STEREO_COUNT>
0

> <PUBCHEM_BOND_DEF_STEREO_COUNT>
0

> <PUBCHEM_BOND_UDEF_STEREO_COUNT>
0

> <PUBCHEM_ISOTOPIC_ATOM_COUNT>
0

> <PUBCHEM_COMPONENT_COUNT>
1

> <PUBCHEM_CACTVS_TAUTO_COUNT>
-1

> <PUBCHEM_COORDINATE_TYPE>
1
5
255

> <PUBCHEM_BONDANNOTATIONS>
10  15  5
20  22  8
20  23  8
21  27  8
21  29  8
22  25  8
23  30  8
24  26  8
24  32  8
25  33  8
26  27  8
29  32  8
30  33  8

$$$$
