66801229
  -OEChem-09292322342D

 55 59  0     0  0  0  0  0  0999 V2000
   10.9270   -0.7890    0.0000 S   0  0  0  0  0  0  0  0  0  0  0  0
    3.7899    1.9090    0.0000 S   0  0  0  0  0  0  0  0  0  0  0  0
   10.4270    0.0771    0.0000 O   0  0  0  0  0  0  0  0  0  0  0  0
   11.4270   -1.6550    0.0000 O   0  0  0  0  0  0  0  0  0  0  0  0
    7.4629   -0.7890    0.0000 N   0  0  0  0  0  0  0  0  0  0  0  0
    5.7308    0.2110    0.0000 N   0  0  0  0  0  0  0  0  0  0  0  0
   10.0610   -1.2890    0.0000 N   0  0  0  0  0  0  0  0  0  0  0  0
    4.7617    1.6998    0.0000 N   0  0  0  0  0  0  0  0  0  0  0  0
    7.4629    0.2110    0.0000 C   0  0  0  0  0  0  0  0  0  0  0  0
    6.5968   -1.2890    0.0000 C   0  0  0  0  0  0  0  0  0  0  0  0
    6.5968    0.7110    0.0000 C   0  0  0  0  0  0  0  0  0  0  0  0
    5.7308   -0.7890    0.0000 C   0  0  0  0  0  0  0  0  0  0  0  0
    8.3289   -1.2890    0.0000 C   0  0  0  0  0  0  0  0  0  0  0  0
    9.1949   -0.7890    0.0000 C   0  0  0  0  0  0  0  0  0  0  0  0
    4.8648    0.7110    0.0000 C   0  0  0  0  0  0  0  0  0  0  0  0
    3.9570    0.3059    0.0000 C   0  0  0  0  0  0  0  0  0  0  0  0
    3.2892    1.0502    0.0000 C   0  0  0  0  0  0  0  0  0  0  0  0
   11.7930   -0.2890    0.0000 C   0  0  0  0  0  0  0  0  0  0  0  0
    3.6464   -0.6446    0.0000 C   0  0  0  0  0  0  0  0  0  0  0  0
    2.3107    0.8440    0.0000 C   0  0  0  0  0  0  0  0  0  0  0  0
   12.6590   -0.7890    0.0000 C   0  0  0  0  0  0  0  0  0  0  0  0
    2.6678   -0.8508    0.0000 C   0  0  0  0  0  0  0  0  0  0  0  0
   11.7930    0.7110    0.0000 C   0  0  0  0  0  0  0  0  0  0  0  0
   13.5251   -0.2890    0.0000 C   0  0  0  0  0  0  0  0  0  0  0  0
    2.0000   -0.1065    0.0000 C   0  0  0  0  0  0  0  0  0  0  0  0
   13.5251    0.7110    0.0000 C   0  0  0  0  0  0  0  0  0  0  0  0
   12.6590    1.2110    0.0000 C   0  0  0  0  0  0  0  0  0  0  0  0
   14.4190   -0.8236    0.0000 C   0  0  0  0  0  0  0  0  0  0  0  0
   14.4190    1.2457    0.0000 C   0  0  0  0  0  0  0  0  0  0  0  0
   15.3251   -0.3098    0.0000 C   0  0  0  0  0  0  0  0  0  0  0  0
   15.3251    0.7319    0.0000 C   0  0  0  0  0  0  0  0  0  0  0  0
    8.0734    0.1034    0.0000 H   0  0  0  0  0  0  0  0  0  0  0  0
    7.6749    0.7936    0.0000 H   0  0  0  0  0  0  0  0  0  0  0  0
    6.1983   -1.7639    0.0000 H   0  0  0  0  0  0  0  0  0  0  0  0
    6.9954   -1.7639    0.0000 H   0  0  0  0  0  0  0  0  0  0  0  0
    6.9954    1.1860    0.0000 H   0  0  0  0  0  0  0  0  0  0  0  0
    6.1983    1.1860    0.0000 H   0  0  0  0  0  0  0  0  0  0  0  0
    5.1202   -0.6813    0.0000 H   0  0  0  0  0  0  0  0  0  0  0  0
    5.5188   -1.3716    0.0000 H   0  0  0  0  0  0  0  0  0  0  0  0
    7.9304   -1.7639    0.0000 H   0  0  0  0  0  0  0  0  0  0  0  0
    8.7274   -1.7639    0.0000 H   0  0  0  0  0  0  0  0  0  0  0  0
    9.5934   -0.3140    0.0000 H   0  0  0  0  0  0  0  0  0  0  0  0
    8.7964   -0.3140    0.0000 H   0  0  0  0  0  0  0  0  0  0  0  0
   10.0610   -1.9090    0.0000 H   0  0  0  0  0  0  0  0  0  0  0  0
    4.0604   -1.1061    0.0000 H   0  0  0  0  0  0  0  0  0  0  0  0
    1.8966    1.3055    0.0000 H   0  0  0  0  0  0  0  0  0  0  0  0
   12.6590   -1.4090    0.0000 H   0  0  0  0  0  0  0  0  0  0  0  0
   11.2561    1.0210    0.0000 H   0  0  0  0  0  0  0  0  0  0  0  0
    2.4752   -1.4401    0.0000 H   0  0  0  0  0  0  0  0  0  0  0  0
    1.3933   -0.2344    0.0000 H   0  0  0  0  0  0  0  0  0  0  0  0
   12.6590    1.8310    0.0000 H   0  0  0  0  0  0  0  0  0  0  0  0
   14.4118   -1.4436    0.0000 H   0  0  0  0  0  0  0  0  0  0  0  0
   14.4118    1.8657    0.0000 H   0  0  0  0  0  0  0  0  0  0  0  0
   15.8608   -0.6218    0.0000 H   0  0  0  0  0  0  0  0  0  0  0  0
   15.8608    1.0439    0.0000 H   0  0  0  0  0  0  0  0  0  0  0  0
  1  3  2  0  0  0  0
  1  4  2  0  0  0  0
  1  7  1  0  0  0  0
  1 18  1  0  0  0  0
  2  8  1  0  0  0  0
  2 17  1  0  0  0  0
  5  9  1  0  0  0  0
  5 10  1  0  0  0  0
  5 13  1  0  0  0  0
  6 11  1  0  0  0  0
  6 12  1  0  0  0  0
  6 15  1  0  0  0  0
  7 14  1  0  0  0  0
  7 44  1  0  0  0  0
  8 15  2  0  0  0  0
  9 11  1  0  0  0  0
  9 32  1  0  0  0  0
  9 33  1  0  0  0  0
 10 12  1  0  0  0  0
 10 34  1  0  0  0  0
 10 35  1  0  0  0  0
 11 36  1  0  0  0  0
 11 37  1  0  0  0  0
 12 38  1  0  0  0  0
 12 39  1  0  0  0  0
 13 14  1  0  0  0  0
 13 40  1  0  0  0  0
 13 41  1  0  0  0  0
 14 42  1  0  0  0  0
 14 43  1  0  0  0  0
 15 16  1  0  0  0  0
 16 17  1  0  0  0  0
 16 19  2  0  0  0  0
 17 20  2  0  0  0  0
 18 21  2  0  0  0  0
 18 23  1  0  0  0  0
 19 22  1  0  0  0  0
 19 45  1  0  0  0  0
 20 25  1  0  0  0  0
 20 46  1  0  0  0  0
 21 24  1  0  0  0  0
 21 47  1  0  0  0  0
 22 25  2  0  0  0  0
 22 49  1  0  0  0  0
 23 27  2  0  0  0  0
 23 48  1  0  0  0  0
 24 26  1  0  0  0  0
 24 28  2  0  0  0  0
 25 50  1  0  0  0  0
 26 27  1  0  0  0  0
 26 29  2  0  0  0  0
 27 51  1  0  0  0  0
 28 30  1  0  0  0  0
 28 52  1  0  0  0  0
 29 31  1  0  0  0  0
 29 53  1  0  0  0  0
 30 31  2  0  0  0  0
 30 54  1  0  0  0  0
 31 55  1  0  0  0  0
M  END
> <PUBCHEM_COMPOUND_CID>
66801229

> <PUBCHEM_COMPOUND_CANONICALIZED>
1

> <PUBCHEM_CACTVS_COMPLEXITY>
692

> <PUBCHEM_CACTVS_HBOND_ACCEPTOR>
7

> <PUBCHEM_CACTVS_HBOND_DONOR>
1

> <PUBCHEM_CACTVS_ROTATABLE_BOND>
6

> <PUBCHEM_CACTVS_SUBSKEYS>
AAADceB7sABgAAAAAAAAAAAAAAAAAWAAAAA8YMEAAAAAAFjB9AAAHAQQQAAADADBWgQxsdNAAAKkAiJiYHDDABAhAABJmLgoRJiIYKLAmZGUIAxgkALIyAcQgIAOkAAAgAAUAAAgAAEAACgAAAAAAAAAAA==

> <PUBCHEM_IUPAC_OPENEYE_NAME>
N-[2-[4-(1,2-benzothiazol-3-yl)piperazin-1-yl]ethyl]naphthalene-2-sulfonamide

> <PUBCHEM_IUPAC_CAS_NAME>
N-[2-[4-(1,2-benzothiazol-3-yl)-1-piperazinyl]ethyl]-2-naphthalenesulfonamide

> <PUBCHEM_IUPAC_NAME_MARKUP>
<I>N</I>-[2-[4-(1,2-benzothiazol-3-yl)piperazin-1-yl]ethyl]naphthalene-2-sulfonamide

> <PUBCHEM_IUPAC_NAME>
N-[2-[4-(1,2-benzothiazol-3-yl)piperazin-1-yl]ethyl]naphthalene-2-sulfonamide

> <PUBCHEM_IUPAC_SYSTEMATIC_NAME>
N-[2-[4-(1,2-benzothiazol-3-yl)piperazin-1-yl]ethyl]naphthalene-2-sulfonamide

> <PUBCHEM_IUPAC_TRADITIONAL_NAME>
N-[2-[4-(1,2-benzothiazol-3-yl)piperazino]ethyl]naphthalene-2-sulfonamide

> <PUBCHEM_IUPAC_INCHI>
InChI=1S/C23H24N4O2S2/c28-31(29,20-10-9-18-5-1-2-6-19(18)17-20)24-11-12-26-13-15-27(16-14-26)23-21-7-3-4-8-22(21)30-25-23/h1-10,17,24H,11-16H2

> <PUBCHEM_IUPAC_INCHIKEY>
MRQHTSWENGWSMD-UHFFFAOYSA-N

> <PUBCHEM_XLOGP3_AA>
4.5

> <PUBCHEM_EXACT_MASS>
452.13406837

> <PUBCHEM_MOLECULAR_FORMULA>
C23H24N4O2S2

> <PUBCHEM_MOLECULAR_WEIGHT>
452.6

> <PUBCHEM_OPENEYE_CAN_SMILES>
C1CN(CCN1CCNS(=O)(=O)C2=CC3=CC=CC=C3C=C2)C4=NSC5=CC=CC=C54

> <PUBCHEM_OPENEYE_ISO_SMILES>
C1CN(CCN1CCNS(=O)(=O)C2=CC3=CC=CC=C3C=C2)C4=NSC5=CC=CC=C54

> <PUBCHEM_CACTVS_TPSA>
102

> <PUBCHEM_MONOISOTOPIC_WEIGHT>
452.13406837

> <PUBCHEM_TOTAL_CHARGE>
0

> <PUBCHEM_HEAVY_ATOM_COUNT>
31

> <PUBCHEM_ATOM_DEF_STEREO_COUNT>
0

> <PUBCHEM_ATOM_UDEF_STEREO_COUNT>
0

> <PUBCHEM_BOND_DEF_STEREO_COUNT>
0

> <PUBCHEM_BOND_UDEF_STEREO_COUNT>
0

> <PUBCHEM_ISOTOPIC_ATOM_COUNT>
0

> <PUBCHEM_COMPONENT_COUNT>
1

> <PUBCHEM_CACTVS_TAUTO_COUNT>
-1

> <PUBCHEM_COORDINATE_TYPE>
1
5
255

> <PUBCHEM_BONDANNOTATIONS>
15  16  8
16  17  8
16  19  8
17  20  8
18  21  8
18  23  8
19  22  8
2  17  8
2  8  8
20  25  8
21  24  8
22  25  8
23  27  8
24  26  8
24  28  8
26  27  8
26  29  8
28  30  8
29  31  8
30  31  8
8  15  8

$$$$
