121412939
  -OEChem-09292322442D

 63 66  0     1  0  0  0  0  0999 V2000
   11.4641    2.8170    0.0000 Cl  0  0  0  0  0  0  0  0  0  0  0  0
    5.4641    2.8170    0.0000 O   0  0  0  0  0  0  0  0  0  0  0  0
    4.5981   -3.4151    0.0000 O   0  0  0  0  0  0  0  0  0  0  0  0
    5.4641   -0.9151    0.0000 N   0  0  0  0  0  0  0  0  0  0  0  0
    6.9641    1.9510    0.0000 N   0  0  0  0  0  0  0  0  0  0  0  0
    5.9641    3.6830    0.0000 N   0  0  0  0  0  0  0  0  0  0  0  0
    5.4641    1.0849    0.0000 C   0  0  0  0  0  0  0  0  0  0  0  0
    6.3301    0.5849    0.0000 C   0  0  0  0  0  0  0  0  0  0  0  0
    4.5981    0.5849    0.0000 C   0  0  0  0  0  0  0  0  0  0  0  0
    6.3301   -0.4151    0.0000 C   0  0  0  0  0  0  0  0  0  0  0  0
    4.5981   -0.4151    0.0000 C   0  0  0  0  0  0  0  0  0  0  0  0
    4.9641    1.9510    0.0000 C   0  0  0  0  0  0  0  0  0  0  0  0
    5.9641    1.9510    0.0000 C   0  0  0  0  0  0  0  0  0  0  0  0
    5.4641   -1.9151    0.0000 C   0  0  0  0  0  0  0  0  0  0  0  0
    4.5981   -2.4151    0.0000 C   0  0  0  0  0  0  0  0  0  0  0  0
    7.4641    2.8170    0.0000 C   0  0  3  0  0  0  0  0  0  0  0  0
    8.4641    2.8170    0.0000 C   0  0  0  0  0  0  0  0  0  0  0  0
    6.9641    3.6830    0.0000 C   0  0  0  0  0  0  0  0  0  0  0  0
    8.9641    1.9510    0.0000 C   0  0  0  0  0  0  0  0  0  0  0  0
    8.9641    3.6830    0.0000 C   0  0  0  0  0  0  0  0  0  0  0  0
    7.4641    4.5490    0.0000 C   0  0  0  0  0  0  0  0  0  0  0  0
    3.7320   -3.9151    0.0000 C   0  0  0  0  0  0  0  0  0  0  0  0
    9.9641    1.9510    0.0000 C   0  0  0  0  0  0  0  0  0  0  0  0
    9.9641    3.6830    0.0000 C   0  0  0  0  0  0  0  0  0  0  0  0
    6.9641    5.4151    0.0000 C   0  0  0  0  0  0  0  0  0  0  0  0
   10.4641    2.8170    0.0000 C   0  0  0  0  0  0  0  0  0  0  0  0
    5.4641    4.5490    0.0000 C   0  0  0  0  0  0  0  0  0  0  0  0
    3.7320   -4.9151    0.0000 C   0  0  0  0  0  0  0  0  0  0  0  0
    2.8660   -3.4151    0.0000 C   0  0  0  0  0  0  0  0  0  0  0  0
    5.9641    5.4151    0.0000 C   0  0  0  0  0  0  0  0  0  0  0  0
    2.8660   -5.4151    0.0000 C   0  0  0  0  0  0  0  0  0  0  0  0
    2.0000   -3.9151    0.0000 C   0  0  0  0  0  0  0  0  0  0  0  0
    2.0000   -4.9151    0.0000 C   0  0  0  0  0  0  0  0  0  0  0  0
    6.9407    0.4773    0.0000 H   0  0  0  0  0  0  0  0  0  0  0  0
    6.5422    1.1676    0.0000 H   0  0  0  0  0  0  0  0  0  0  0  0
    4.3860    1.1676    0.0000 H   0  0  0  0  0  0  0  0  0  0  0  0
    3.9875    0.4773    0.0000 H   0  0  0  0  0  0  0  0  0  0  0  0
    6.5422   -0.9977    0.0000 H   0  0  0  0  0  0  0  0  0  0  0  0
    6.9407   -0.3074    0.0000 H   0  0  0  0  0  0  0  0  0  0  0  0
    3.9875   -0.3074    0.0000 H   0  0  0  0  0  0  0  0  0  0  0  0
    4.3860   -0.9977    0.0000 H   0  0  0  0  0  0  0  0  0  0  0  0
    5.5010    2.2610    0.0000 H   0  0  0  0  0  0  0  0  0  0  0  0
    4.6541    2.4879    0.0000 H   0  0  0  0  0  0  0  0  0  0  0  0
    4.4272    1.6410    0.0000 H   0  0  0  0  0  0  0  0  0  0  0  0
    5.6762   -2.4977    0.0000 H   0  0  0  0  0  0  0  0  0  0  0  0
    6.0747   -1.8074    0.0000 H   0  0  0  0  0  0  0  0  0  0  0  0
    7.2741    1.4140    0.0000 H   0  0  0  0  0  0  0  0  0  0  0  0
    4.3860   -1.8324    0.0000 H   0  0  0  0  0  0  0  0  0  0  0  0
    3.9875   -2.5227    0.0000 H   0  0  0  0  0  0  0  0  0  0  0  0
    7.7741    2.2800    0.0000 H   0  0  0  0  0  0  0  0  0  0  0  0
    8.6541    1.4140    0.0000 H   0  0  0  0  0  0  0  0  0  0  0  0
    8.6541    4.2200    0.0000 H   0  0  0  0  0  0  0  0  0  0  0  0
    8.0841    4.5490    0.0000 H   0  0  0  0  0  0  0  0  0  0  0  0
   10.2741    1.4140    0.0000 H   0  0  0  0  0  0  0  0  0  0  0  0
   10.2741    4.2200    0.0000 H   0  0  0  0  0  0  0  0  0  0  0  0
    7.2741    5.9520    0.0000 H   0  0  0  0  0  0  0  0  0  0  0  0
    4.8441    4.5490    0.0000 H   0  0  0  0  0  0  0  0  0  0  0  0
    4.2690   -5.2251    0.0000 H   0  0  0  0  0  0  0  0  0  0  0  0
    2.8660   -2.7951    0.0000 H   0  0  0  0  0  0  0  0  0  0  0  0
    5.6541    5.9520    0.0000 H   0  0  0  0  0  0  0  0  0  0  0  0
    2.8660   -6.0351    0.0000 H   0  0  0  0  0  0  0  0  0  0  0  0
    1.4631   -3.6051    0.0000 H   0  0  0  0  0  0  0  0  0  0  0  0
    1.4631   -5.2251    0.0000 H   0  0  0  0  0  0  0  0  0  0  0  0
  1 26  1  0  0  0  0
  2 13  2  0  0  0  0
  3 15  1  0  0  0  0
  3 22  1  0  0  0  0
  4 10  1  0  0  0  0
  4 11  1  0  0  0  0
  4 14  1  0  0  0  0
  5 13  1  0  0  0  0
  5 16  1  0  0  0  0
  5 47  1  0  0  0  0
  6 18  1  0  0  0  0
  6 27  2  0  0  0  0
  7  8  1  0  0  0  0
  7  9  1  0  0  0  0
  7 12  1  0  0  0  0
  7 13  1  0  0  0  0
  8 10  1  0  0  0  0
  8 34  1  0  0  0  0
  8 35  1  0  0  0  0
  9 11  1  0  0  0  0
  9 36  1  0  0  0  0
  9 37  1  0  0  0  0
 10 38  1  0  0  0  0
 10 39  1  0  0  0  0
 11 40  1  0  0  0  0
 11 41  1  0  0  0  0
 12 42  1  0  0  0  0
 12 43  1  0  0  0  0
 12 44  1  0  0  0  0
 14 15  1  0  0  0  0
 14 45  1  0  0  0  0
 14 46  1  0  0  0  0
 15 48  1  0  0  0  0
 15 49  1  0  0  0  0
 16 17  1  0  0  0  0
 16 18  1  0  0  0  0
 16 50  1  0  0  0  0
 17 19  2  0  0  0  0
 17 20  1  0  0  0  0
 18 21  2  0  0  0  0
 19 23  1  0  0  0  0
 19 51  1  0  0  0  0
 20 24  2  0  0  0  0
 20 52  1  0  0  0  0
 21 25  1  0  0  0  0
 21 53  1  0  0  0  0
 22 28  2  0  0  0  0
 22 29  1  0  0  0  0
 23 26  2  0  0  0  0
 23 54  1  0  0  0  0
 24 26  1  0  0  0  0
 24 55  1  0  0  0  0
 25 30  2  0  0  0  0
 25 56  1  0  0  0  0
 27 30  1  0  0  0  0
 27 57  1  0  0  0  0
 28 31  1  0  0  0  0
 28 58  1  0  0  0  0
 29 32  2  0  0  0  0
 29 59  1  0  0  0  0
 30 60  1  0  0  0  0
 31 33  2  0  0  0  0
 31 61  1  0  0  0  0
 32 33  1  0  0  0  0
 32 62  1  0  0  0  0
 33 63  1  0  0  0  0
M  END
> <PUBCHEM_COMPOUND_CID>
121412939

> <PUBCHEM_COMPOUND_CANONICALIZED>
1

> <PUBCHEM_CACTVS_COMPLEXITY>
596

> <PUBCHEM_CACTVS_HBOND_ACCEPTOR>
4

> <PUBCHEM_CACTVS_HBOND_DONOR>
1

> <PUBCHEM_CACTVS_ROTATABLE_BOND>
8

> <PUBCHEM_CACTVS_SUBSKEYS>
AAADceB7MAAEAAAAAAAAAAAAAAAAAAAAAAA8eIEAAAAAAAAB0AAAHgIQAAAADi7hniY+hpPIFACoAzV3VACCiCAxJyAI2KE+bpgOZvLFs5uXOCjkxhHY6AeUwMAPBAAAAAAAAAAIAAAAAAAAAAAAAAAAAA==

> <PUBCHEM_IUPAC_OPENEYE_NAME>
N-[(4-chlorophenyl)-(2-pyridyl)methyl]-4-methyl-1-(2-phenoxyethyl)piperidine-4-carboxamide

> <PUBCHEM_IUPAC_CAS_NAME>
N-[(4-chlorophenyl)-(2-pyridinyl)methyl]-4-methyl-1-(2-phenoxyethyl)-4-piperidinecarboxamide

> <PUBCHEM_IUPAC_NAME_MARKUP>
<I>N</I>-[(4-chlorophenyl)-pyridin-2-ylmethyl]-4-methyl-1-(2-phenoxyethyl)piperidine-4-carboxamide

> <PUBCHEM_IUPAC_NAME>
N-[(4-chlorophenyl)-pyridin-2-ylmethyl]-4-methyl-1-(2-phenoxyethyl)piperidine-4-carboxamide

> <PUBCHEM_IUPAC_SYSTEMATIC_NAME>
N-[(4-chlorophenyl)-pyridin-2-yl-methyl]-4-methyl-1-(2-phenoxyethyl)piperidine-4-carboxamide

> <PUBCHEM_IUPAC_TRADITIONAL_NAME>
N-[(4-chlorophenyl)-(2-pyridyl)methyl]-4-methyl-1-(2-phenoxyethyl)isonipecotamide

> <PUBCHEM_IUPAC_INCHI>
InChI=1S/C27H30ClN3O2/c1-27(14-17-31(18-15-27)19-20-33-23-7-3-2-4-8-23)26(32)30-25(24-9-5-6-16-29-24)21-10-12-22(28)13-11-21/h2-13,16,25H,14-15,17-20H2,1H3,(H,30,32)

> <PUBCHEM_IUPAC_INCHIKEY>
NNYUKSZNKIFDKH-UHFFFAOYSA-N

> <PUBCHEM_XLOGP3_AA>
4.8

> <PUBCHEM_EXACT_MASS>
463.2026549

> <PUBCHEM_MOLECULAR_FORMULA>
C27H30ClN3O2

> <PUBCHEM_MOLECULAR_WEIGHT>
464.0

> <PUBCHEM_OPENEYE_CAN_SMILES>
CC1(CCN(CC1)CCOC2=CC=CC=C2)C(=O)NC(C3=CC=C(C=C3)Cl)C4=CC=CC=N4

> <PUBCHEM_OPENEYE_ISO_SMILES>
CC1(CCN(CC1)CCOC2=CC=CC=C2)C(=O)NC(C3=CC=C(C=C3)Cl)C4=CC=CC=N4

> <PUBCHEM_CACTVS_TPSA>
54.5

> <PUBCHEM_MONOISOTOPIC_WEIGHT>
463.2026549

> <PUBCHEM_TOTAL_CHARGE>
0

> <PUBCHEM_HEAVY_ATOM_COUNT>
33

> <PUBCHEM_ATOM_DEF_STEREO_COUNT>
0

> <PUBCHEM_ATOM_UDEF_STEREO_COUNT>
1

> <PUBCHEM_BOND_DEF_STEREO_COUNT>
0

> <PUBCHEM_BOND_UDEF_STEREO_COUNT>
0

> <PUBCHEM_ISOTOPIC_ATOM_COUNT>
0

> <PUBCHEM_COMPONENT_COUNT>
1

> <PUBCHEM_CACTVS_TAUTO_COUNT>
-1

> <PUBCHEM_COORDINATE_TYPE>
1
5
255

> <PUBCHEM_BONDANNOTATIONS>
17  19  8
17  20  8
18  21  8
19  23  8
20  24  8
21  25  8
22  28  8
22  29  8
23  26  8
24  26  8
25  30  8
27  30  8
28  31  8
29  32  8
31  33  8
32  33  8
16  5  3
6  18  8
6  27  8

$$$$
