52937680
  -OEChem-09292322312D

 69 73  0     1  0  0  0  0  0999 V2000
   11.5942   -1.5000    0.0000 O   0  0  0  0  0  0  0  0  0  0  0  0
    6.3981   -0.5000    0.0000 N   0  0  3  0  0  0  0  0  0  0  0  0
    2.9061    1.5347    0.0000 N   0  0  0  0  0  0  0  0  0  0  0  0
    3.3073    2.4439    0.0000 N   0  0  0  0  0  0  0  0  0  0  0  0
   10.7282   -0.0000    0.0000 N   0  0  0  0  0  0  0  0  0  0  0  0
    5.5321    0.0000    0.0000 C   0  0  3  0  0  0  0  0  0  0  0  0
    5.5321    1.0000    0.0000 C   0  0  0  0  0  0  0  0  0  0  0  0
    4.6660   -0.5000    0.0000 C   0  0  0  0  0  0  0  0  0  0  0  0
    4.6660    1.5000    0.0000 C   0  0  0  0  0  0  0  0  0  0  0  0
    3.8000    0.0000    0.0000 C   0  0  0  0  0  0  0  0  0  0  0  0
    3.8000    1.0000    0.0000 C   0  0  0  0  0  0  0  0  0  0  0  0
    7.2641    0.0000    0.0000 C   0  0  0  0  0  0  0  0  0  0  0  0
    6.3981   -1.5000    0.0000 C   0  0  0  0  0  0  0  0  0  0  0  0
    8.1301   -0.5000    0.0000 C   0  0  0  0  0  0  0  0  0  0  0  0
    4.3009    2.4243    0.0000 C   0  0  0  0  0  0  0  0  0  0  0  0
    2.9061   -0.5347    0.0000 C   0  0  0  0  0  0  0  0  0  0  0  0
    7.2641   -2.0000    0.0000 C   0  0  0  0  0  0  0  0  0  0  0  0
    8.9962    0.0000    0.0000 C   0  0  0  0  0  0  0  0  0  0  0  0
    2.0000    1.0208    0.0000 C   0  0  0  0  0  0  0  0  0  0  0  0
    2.0000   -0.0208    0.0000 C   0  0  0  0  0  0  0  0  0  0  0  0
    7.2641   -3.0000    0.0000 C   0  0  0  0  0  0  0  0  0  0  0  0
    9.8622   -0.5000    0.0000 C   0  0  0  0  0  0  0  0  0  0  0  0
   11.5942   -0.5000    0.0000 C   0  0  0  0  0  0  0  0  0  0  0  0
   12.4603   -0.0000    0.0000 C   0  0  0  0  0  0  0  0  0  0  0  0
   12.4603    1.0000    0.0000 C   0  0  0  0  0  0  0  0  0  0  0  0
   13.3263   -0.5000    0.0000 C   0  0  0  0  0  0  0  0  0  0  0  0
   14.1923    1.0000    0.0000 C   0  0  0  0  0  0  0  0  0  0  0  0
   13.3263    1.5000    0.0000 C   0  0  0  0  0  0  0  0  0  0  0  0
   14.1923   -0.0000    0.0000 C   0  0  0  0  0  0  0  0  0  0  0  0
   15.0583    1.5000    0.0000 C   0  0  0  0  0  0  0  0  0  0  0  0
   15.0583    2.5000    0.0000 C   0  0  0  0  0  0  0  0  0  0  0  0
   15.9244    1.0000    0.0000 C   0  0  0  0  0  0  0  0  0  0  0  0
   15.9244    3.0000    0.0000 C   0  0  0  0  0  0  0  0  0  0  0  0
   16.7904    1.5000    0.0000 C   0  0  0  0  0  0  0  0  0  0  0  0
   16.7904    2.5000    0.0000 C   0  0  0  0  0  0  0  0  0  0  0  0
    5.5321   -0.6200    0.0000 H   0  0  0  0  0  0  0  0  0  0  0  0
    6.1426    0.8923    0.0000 H   0  0  0  0  0  0  0  0  0  0  0  0
    5.7441    1.5826    0.0000 H   0  0  0  0  0  0  0  0  0  0  0  0
    4.2675   -0.9749    0.0000 H   0  0  0  0  0  0  0  0  0  0  0  0
    5.0646   -0.9749    0.0000 H   0  0  0  0  0  0  0  0  0  0  0  0
    7.6626    0.4749    0.0000 H   0  0  0  0  0  0  0  0  0  0  0  0
    6.8656    0.4749    0.0000 H   0  0  0  0  0  0  0  0  0  0  0  0
    5.7875   -1.3923    0.0000 H   0  0  0  0  0  0  0  0  0  0  0  0
    6.1860   -2.0826    0.0000 H   0  0  0  0  0  0  0  0  0  0  0  0
    7.7316   -0.9749    0.0000 H   0  0  0  0  0  0  0  0  0  0  0  0
    8.5287   -0.9749    0.0000 H   0  0  0  0  0  0  0  0  0  0  0  0
    4.6546    2.9335    0.0000 H   0  0  0  0  0  0  0  0  0  0  0  0
    2.9132   -1.1546    0.0000 H   0  0  0  0  0  0  0  0  0  0  0  0
    7.8747   -2.1077    0.0000 H   0  0  0  0  0  0  0  0  0  0  0  0
    7.4762   -1.4174    0.0000 H   0  0  0  0  0  0  0  0  0  0  0  0
    9.3947    0.4749    0.0000 H   0  0  0  0  0  0  0  0  0  0  0  0
    8.5976    0.4749    0.0000 H   0  0  0  0  0  0  0  0  0  0  0  0
    1.4643    1.3329    0.0000 H   0  0  0  0  0  0  0  0  0  0  0  0
    1.4643   -0.3329    0.0000 H   0  0  0  0  0  0  0  0  0  0  0  0
    6.6441   -3.0000    0.0000 H   0  0  0  0  0  0  0  0  0  0  0  0
    7.2641   -3.6200    0.0000 H   0  0  0  0  0  0  0  0  0  0  0  0
    7.8841   -3.0000    0.0000 H   0  0  0  0  0  0  0  0  0  0  0  0
    9.4637   -0.9749    0.0000 H   0  0  0  0  0  0  0  0  0  0  0  0
   10.2607   -0.9749    0.0000 H   0  0  0  0  0  0  0  0  0  0  0  0
   10.7282    0.6200    0.0000 H   0  0  0  0  0  0  0  0  0  0  0  0
   11.9233    1.3100    0.0000 H   0  0  0  0  0  0  0  0  0  0  0  0
   13.3263   -1.1200    0.0000 H   0  0  0  0  0  0  0  0  0  0  0  0
   13.3263    2.1200    0.0000 H   0  0  0  0  0  0  0  0  0  0  0  0
   14.7292   -0.3100    0.0000 H   0  0  0  0  0  0  0  0  0  0  0  0
   14.5214    2.8100    0.0000 H   0  0  0  0  0  0  0  0  0  0  0  0
   15.9244    0.3800    0.0000 H   0  0  0  0  0  0  0  0  0  0  0  0
   15.9244    3.6200    0.0000 H   0  0  0  0  0  0  0  0  0  0  0  0
   17.3273    1.1900    0.0000 H   0  0  0  0  0  0  0  0  0  0  0  0
   17.3273    2.8100    0.0000 H   0  0  0  0  0  0  0  0  0  0  0  0
  1 23  2  0  0  0  0
  2  6  1  0  0  0  0
  2 12  1  0  0  0  0
  2 13  1  0  0  0  0
  3  4  1  0  0  0  0
  3 11  1  0  0  0  0
  3 19  1  0  0  0  0
  4 15  2  0  0  0  0
  5 22  1  0  0  0  0
  5 23  1  0  0  0  0
  5 60  1  0  0  0  0
  6  7  1  0  0  0  0
  6  8  1  0  0  0  0
  6 36  1  0  0  0  0
  7  9  1  0  0  0  0
  7 37  1  0  0  0  0
  7 38  1  0  0  0  0
  8 10  1  0  0  0  0
  8 39  1  0  0  0  0
  8 40  1  0  0  0  0
  9 11  2  0  0  0  0
  9 15  1  0  0  0  0
 10 11  1  0  0  0  0
 10 16  2  0  0  0  0
 12 14  1  0  0  0  0
 12 41  1  0  0  0  0
 12 42  1  0  0  0  0
 13 17  1  0  0  0  0
 13 43  1  0  0  0  0
 13 44  1  0  0  0  0
 14 18  1  0  0  0  0
 14 45  1  0  0  0  0
 14 46  1  0  0  0  0
 15 47  1  0  0  0  0
 16 20  1  0  0  0  0
 16 48  1  0  0  0  0
 17 21  1  0  0  0  0
 17 49  1  0  0  0  0
 17 50  1  0  0  0  0
 18 22  1  0  0  0  0
 18 51  1  0  0  0  0
 18 52  1  0  0  0  0
 19 20  2  0  0  0  0
 19 53  1  0  0  0  0
 20 54  1  0  0  0  0
 21 55  1  0  0  0  0
 21 56  1  0  0  0  0
 21 57  1  0  0  0  0
 22 58  1  0  0  0  0
 22 59  1  0  0  0  0
 23 24  1  0  0  0  0
 24 25  2  0  0  0  0
 24 26  1  0  0  0  0
 25 28  1  0  0  0  0
 25 61  1  0  0  0  0
 26 29  2  0  0  0  0
 26 62  1  0  0  0  0
 27 28  2  0  0  0  0
 27 29  1  0  0  0  0
 27 30  1  0  0  0  0
 28 63  1  0  0  0  0
 29 64  1  0  0  0  0
 30 31  2  0  0  0  0
 30 32  1  0  0  0  0
 31 33  1  0  0  0  0
 31 65  1  0  0  0  0
 32 34  2  0  0  0  0
 32 66  1  0  0  0  0
 33 35  2  0  0  0  0
 33 67  1  0  0  0  0
 34 35  1  0  0  0  0
 34 68  1  0  0  0  0
 35 69  1  0  0  0  0
M  END
> <PUBCHEM_COMPOUND_CID>
52937680

> <PUBCHEM_COMPOUND_CANONICALIZED>
1

> <PUBCHEM_CACTVS_COMPLEXITY>
657

> <PUBCHEM_CACTVS_HBOND_ACCEPTOR>
3

> <PUBCHEM_CACTVS_HBOND_DONOR>
1

> <PUBCHEM_CACTVS_ROTATABLE_BOND>
10

> <PUBCHEM_CACTVS_SUBSKEYS>
AAADcfB7oAAAAAAAAAAAAAAAAAAAAWAAAAA8YMEAAAAAAFix9AAAHgAYAAAADCjBngQ+wLPIEACqAzV3VACShCA1giAY2KE4ZNgIIPLA1dGEpQhgngDIyYcYiMCOwAAAAAAAAACAAQSAAAQAAAAAAAAAAA==

> <PUBCHEM_IUPAC_OPENEYE_NAME>
N-[4-[1,2-diazatricyclo[6.3.1.04,12]dodeca-2,4(12),8,10-tetraen-6-yl(propyl)amino]butyl]-4-phenyl-benzamide

> <PUBCHEM_IUPAC_CAS_NAME>
N-[4-[1,2-diazatricyclo[6.3.1.04,12]dodeca-2,4(12),8,10-tetraen-6-yl(propyl)amino]butyl]-4-phenylbenzamide

> <PUBCHEM_IUPAC_NAME_MARKUP>
<I>N</I>-[4-[1,2-diazatricyclo[6.3.1.0<SUP>4,12</SUP>]dodeca-2,4(12),8,10-tetraen-6-yl(propyl)amino]butyl]-4-phenylbenzamide

> <PUBCHEM_IUPAC_NAME>
N-[4-[1,2-diazatricyclo[6.3.1.04,12]dodeca-2,4(12),8,10-tetraen-6-yl(propyl)amino]butyl]-4-phenylbenzamide

> <PUBCHEM_IUPAC_SYSTEMATIC_NAME>
N-[4-[1,2-diazatricyclo[6.3.1.04,12]dodeca-2,4(12),8,10-tetraen-6-yl(propyl)amino]butyl]-4-phenyl-benzamide

> <PUBCHEM_IUPAC_TRADITIONAL_NAME>
N-[4-[1,2-diazatricyclo[6.3.1.04,12]dodeca-2,4(12),8,10-tetraen-6-yl(propyl)amino]butyl]-4-phenyl-benzamide

> <PUBCHEM_IUPAC_INCHI>
InChI=1S/C30H34N4O/c1-2-17-33(28-20-26-11-8-19-34-29(26)27(21-28)22-32-34)18-7-6-16-31-30(35)25-14-12-24(13-15-25)23-9-4-3-5-10-23/h3-5,8-15,19,22,28H,2,6-7,16-18,20-21H2,1H3,(H,31,35)

> <PUBCHEM_IUPAC_INCHIKEY>
LQCUFDIAPSFACZ-UHFFFAOYSA-N

> <PUBCHEM_XLOGP3_AA>
5.7

> <PUBCHEM_EXACT_MASS>
466.27326172

> <PUBCHEM_MOLECULAR_FORMULA>
C30H34N4O

> <PUBCHEM_MOLECULAR_WEIGHT>
466.6

> <PUBCHEM_OPENEYE_CAN_SMILES>
CCCN(CCCCNC(=O)C1=CC=C(C=C1)C2=CC=CC=C2)C3CC4=CC=CN5C4=C(C3)C=N5

> <PUBCHEM_OPENEYE_ISO_SMILES>
CCCN(CCCCNC(=O)C1=CC=C(C=C1)C2=CC=CC=C2)C3CC4=CC=CN5C4=C(C3)C=N5

> <PUBCHEM_CACTVS_TPSA>
49.6

> <PUBCHEM_MONOISOTOPIC_WEIGHT>
466.27326172

> <PUBCHEM_TOTAL_CHARGE>
0

> <PUBCHEM_HEAVY_ATOM_COUNT>
35

> <PUBCHEM_ATOM_DEF_STEREO_COUNT>
0

> <PUBCHEM_ATOM_UDEF_STEREO_COUNT>
1

> <PUBCHEM_BOND_DEF_STEREO_COUNT>
0

> <PUBCHEM_BOND_UDEF_STEREO_COUNT>
0

> <PUBCHEM_ISOTOPIC_ATOM_COUNT>
0

> <PUBCHEM_COMPONENT_COUNT>
1

> <PUBCHEM_CACTVS_TAUTO_COUNT>
-1

> <PUBCHEM_COORDINATE_TYPE>
1
5
255

> <PUBCHEM_BONDANNOTATIONS>
10  11  8
10  16  8
16  20  8
19  20  8
6  2  3
24  25  8
24  26  8
25  28  8
26  29  8
27  28  8
27  29  8
3  11  8
3  19  8
3  4  8
30  31  8
30  32  8
31  33  8
32  34  8
33  35  8
34  35  8
4  15  8
9  11  8
9  15  8

$$$$
