134131976
  -OEChem-09292322382D

 70 73  0     0  0  0  0  0  0999 V2000
   18.4545   -3.5000    0.0000 F   0  0  0  0  0  0  0  0  0  0  0  0
    8.0622   -1.5000    0.0000 O   0  0  0  0  0  0  0  0  0  0  0  0
   13.2583   -0.5000    0.0000 N   0  0  0  0  0  0  0  0  0  0  0  0
   14.9904   -1.5000    0.0000 N   0  0  0  0  0  0  0  0  0  0  0  0
    7.1962    0.0000    0.0000 N   0  0  0  0  0  0  0  0  0  0  0  0
   16.7224    3.5000    0.0000 N   0  0  0  0  0  0  0  0  0  0  0  0
    2.0000    2.0000    0.0000 N   0  0  0  0  0  0  0  0  0  0  0  0
   13.2583   -1.5000    0.0000 C   0  0  0  0  0  0  0  0  0  0  0  0
   14.1244    0.0000    0.0000 C   0  0  0  0  0  0  0  0  0  0  0  0
   14.1244   -2.0000    0.0000 C   0  0  0  0  0  0  0  0  0  0  0  0
   14.9904   -0.5000    0.0000 C   0  0  0  0  0  0  0  0  0  0  0  0
   12.3923    0.0000    0.0000 C   0  0  0  0  0  0  0  0  0  0  0  0
   11.5263   -0.5000    0.0000 C   0  0  0  0  0  0  0  0  0  0  0  0
   15.8564   -2.0000    0.0000 C   0  0  0  0  0  0  0  0  0  0  0  0
   10.6603    0.0000    0.0000 C   0  0  0  0  0  0  0  0  0  0  0  0
    9.7942   -0.5000    0.0000 C   0  0  0  0  0  0  0  0  0  0  0  0
   16.7224   -1.5000    0.0000 C   0  0  0  0  0  0  0  0  0  0  0  0
   15.8564   -3.0000    0.0000 C   0  0  0  0  0  0  0  0  0  0  0  0
    8.9282    0.0000    0.0000 C   0  0  0  0  0  0  0  0  0  0  0  0
   16.7224   -0.5000    0.0000 C   0  0  0  0  0  0  0  0  0  0  0  0
   17.5885   -2.0000    0.0000 C   0  0  0  0  0  0  0  0  0  0  0  0
   16.7224   -3.5000    0.0000 C   0  0  0  0  0  0  0  0  0  0  0  0
   17.5885   -3.0000    0.0000 C   0  0  0  0  0  0  0  0  0  0  0  0
    8.0622   -0.5000    0.0000 C   0  0  0  0  0  0  0  0  0  0  0  0
   15.8564    0.0000    0.0000 C   0  0  0  0  0  0  0  0  0  0  0  0
   17.5885    0.0000    0.0000 C   0  0  0  0  0  0  0  0  0  0  0  0
   15.8564    1.0000    0.0000 C   0  0  0  0  0  0  0  0  0  0  0  0
   17.5885    1.0000    0.0000 C   0  0  0  0  0  0  0  0  0  0  0  0
    6.3301   -0.5000    0.0000 C   0  0  0  0  0  0  0  0  0  0  0  0
   16.7224    1.5000    0.0000 C   0  0  0  0  0  0  0  0  0  0  0  0
    5.4641    0.0000    0.0000 C   0  0  0  0  0  0  0  0  0  0  0  0
    4.5981   -0.5000    0.0000 C   0  0  0  0  0  0  0  0  0  0  0  0
    5.4641    1.0000    0.0000 C   0  0  0  0  0  0  0  0  0  0  0  0
   16.7224    2.5000    0.0000 C   0  0  0  0  0  0  0  0  0  0  0  0
    3.7320    0.0000    0.0000 C   0  0  0  0  0  0  0  0  0  0  0  0
    4.5981    1.5000    0.0000 C   0  0  0  0  0  0  0  0  0  0  0  0
    3.7320    1.0000    0.0000 C   0  0  0  0  0  0  0  0  0  0  0  0
    2.8660    1.5000    0.0000 C   0  0  0  0  0  0  0  0  0  0  0  0
   12.6477   -1.3923    0.0000 H   0  0  0  0  0  0  0  0  0  0  0  0
   13.0463   -2.0826    0.0000 H   0  0  0  0  0  0  0  0  0  0  0  0
   14.5229    0.4749    0.0000 H   0  0  0  0  0  0  0  0  0  0  0  0
   13.7258    0.4749    0.0000 H   0  0  0  0  0  0  0  0  0  0  0  0
   13.7258   -2.4750    0.0000 H   0  0  0  0  0  0  0  0  0  0  0  0
   14.5229   -2.4750    0.0000 H   0  0  0  0  0  0  0  0  0  0  0  0
   15.6010   -0.6077    0.0000 H   0  0  0  0  0  0  0  0  0  0  0  0
   15.2024    0.0826    0.0000 H   0  0  0  0  0  0  0  0  0  0  0  0
   12.7908    0.4749    0.0000 H   0  0  0  0  0  0  0  0  0  0  0  0
   11.9938    0.4749    0.0000 H   0  0  0  0  0  0  0  0  0  0  0  0
   11.1278   -0.9749    0.0000 H   0  0  0  0  0  0  0  0  0  0  0  0
   11.9248   -0.9749    0.0000 H   0  0  0  0  0  0  0  0  0  0  0  0
   11.0588    0.4749    0.0000 H   0  0  0  0  0  0  0  0  0  0  0  0
   10.2617    0.4749    0.0000 H   0  0  0  0  0  0  0  0  0  0  0  0
    9.3957   -0.9749    0.0000 H   0  0  0  0  0  0  0  0  0  0  0  0
   10.1928   -0.9749    0.0000 H   0  0  0  0  0  0  0  0  0  0  0  0
   15.3195   -3.3100    0.0000 H   0  0  0  0  0  0  0  0  0  0  0  0
    9.3267    0.4749    0.0000 H   0  0  0  0  0  0  0  0  0  0  0  0
    8.5297    0.4749    0.0000 H   0  0  0  0  0  0  0  0  0  0  0  0
   18.1254   -1.6900    0.0000 H   0  0  0  0  0  0  0  0  0  0  0  0
   16.7224   -4.1200    0.0000 H   0  0  0  0  0  0  0  0  0  0  0  0
   15.3195   -0.3100    0.0000 H   0  0  0  0  0  0  0  0  0  0  0  0
   18.1254   -0.3100    0.0000 H   0  0  0  0  0  0  0  0  0  0  0  0
    7.1962    0.6200    0.0000 H   0  0  0  0  0  0  0  0  0  0  0  0
   15.3195    1.3100    0.0000 H   0  0  0  0  0  0  0  0  0  0  0  0
   18.1254    1.3100    0.0000 H   0  0  0  0  0  0  0  0  0  0  0  0
    5.9316   -0.9749    0.0000 H   0  0  0  0  0  0  0  0  0  0  0  0
    6.7287   -0.9749    0.0000 H   0  0  0  0  0  0  0  0  0  0  0  0
    4.5981   -1.1200    0.0000 H   0  0  0  0  0  0  0  0  0  0  0  0
    6.0010    1.3100    0.0000 H   0  0  0  0  0  0  0  0  0  0  0  0
    3.1951   -0.3100    0.0000 H   0  0  0  0  0  0  0  0  0  0  0  0
    4.5981    2.1200    0.0000 H   0  0  0  0  0  0  0  0  0  0  0  0
  1 23  1  0  0  0  0
  2 24  2  0  0  0  0
  3  8  1  0  0  0  0
  3  9  1  0  0  0  0
  3 12  1  0  0  0  0
  4 10  1  0  0  0  0
  4 11  1  0  0  0  0
  4 14  1  0  0  0  0
  5 24  1  0  0  0  0
  5 29  1  0  0  0  0
  5 62  1  0  0  0  0
  6 34  3  0  0  0  0
  7 38  3  0  0  0  0
  8 10  1  0  0  0  0
  8 39  1  0  0  0  0
  8 40  1  0  0  0  0
  9 11  1  0  0  0  0
  9 41  1  0  0  0  0
  9 42  1  0  0  0  0
 10 43  1  0  0  0  0
 10 44  1  0  0  0  0
 11 45  1  0  0  0  0
 11 46  1  0  0  0  0
 12 13  1  0  0  0  0
 12 47  1  0  0  0  0
 12 48  1  0  0  0  0
 13 15  1  0  0  0  0
 13 49  1  0  0  0  0
 13 50  1  0  0  0  0
 14 17  2  0  0  0  0
 14 18  1  0  0  0  0
 15 16  1  0  0  0  0
 15 51  1  0  0  0  0
 15 52  1  0  0  0  0
 16 19  1  0  0  0  0
 16 53  1  0  0  0  0
 16 54  1  0  0  0  0
 17 20  1  0  0  0  0
 17 21  1  0  0  0  0
 18 22  2  0  0  0  0
 18 55  1  0  0  0  0
 19 24  1  0  0  0  0
 19 56  1  0  0  0  0
 19 57  1  0  0  0  0
 20 25  2  0  0  0  0
 20 26  1  0  0  0  0
 21 23  2  0  0  0  0
 21 58  1  0  0  0  0
 22 23  1  0  0  0  0
 22 59  1  0  0  0  0
 25 27  1  0  0  0  0
 25 60  1  0  0  0  0
 26 28  2  0  0  0  0
 26 61  1  0  0  0  0
 27 30  2  0  0  0  0
 27 63  1  0  0  0  0
 28 30  1  0  0  0  0
 28 64  1  0  0  0  0
 29 31  1  0  0  0  0
 29 65  1  0  0  0  0
 29 66  1  0  0  0  0
 30 34  1  0  0  0  0
 31 32  2  0  0  0  0
 31 33  1  0  0  0  0
 32 35  1  0  0  0  0
 32 67  1  0  0  0  0
 33 36  2  0  0  0  0
 33 68  1  0  0  0  0
 35 37  2  0  0  0  0
 35 69  1  0  0  0  0
 36 37  1  0  0  0  0
 36 70  1  0  0  0  0
 37 38  1  0  0  0  0
M  END
> <PUBCHEM_COMPOUND_CID>
134131976

> <PUBCHEM_COMPOUND_CANONICALIZED>
1

> <PUBCHEM_CACTVS_COMPLEXITY>
824

> <PUBCHEM_CACTVS_HBOND_ACCEPTOR>
6

> <PUBCHEM_CACTVS_HBOND_DONOR>
1

> <PUBCHEM_CACTVS_ROTATABLE_BOND>
10

> <PUBCHEM_CACTVS_SUBSKEYS>
AAADcfB7oQAAAAAAAAAAAAAAAAAAAAAAAAA8YMEAAAAAAAABUAAAHwAQAAAADAjBmAwwwIPAAACYBiVSUACiAAAhAgAIiIEIZIgI4DLAkZGUIAhglgDIyA8YiMAOwAAAAAACAACAAAAAAAQAAAAAAAAAAA==

> <PUBCHEM_IUPAC_OPENEYE_NAME>
6-[4-[2-(4-cyanophenyl)-4-fluoro-phenyl]piperazin-1-yl]-N-[(4-cyanophenyl)methyl]hexanamide

> <PUBCHEM_IUPAC_CAS_NAME>
6-[4-[2-(4-cyanophenyl)-4-fluorophenyl]-1-piperazinyl]-N-[(4-cyanophenyl)methyl]hexanamide

> <PUBCHEM_IUPAC_NAME_MARKUP>
6-[4-[2-(4-cyanophenyl)-4-fluorophenyl]piperazin-1-yl]-<I>N</I>-[(4-cyanophenyl)methyl]hexanamide

> <PUBCHEM_IUPAC_NAME>
6-[4-[2-(4-cyanophenyl)-4-fluorophenyl]piperazin-1-yl]-N-[(4-cyanophenyl)methyl]hexanamide

> <PUBCHEM_IUPAC_SYSTEMATIC_NAME>
6-[4-[2-(4-cyanophenyl)-4-fluoranyl-phenyl]piperazin-1-yl]-N-[(4-cyanophenyl)methyl]hexanamide

> <PUBCHEM_IUPAC_TRADITIONAL_NAME>
N-(4-cyanobenzyl)-6-[4-[2-(4-cyanophenyl)-4-fluoro-phenyl]piperazino]hexanamide

> <PUBCHEM_IUPAC_INCHI>
InChI=1S/C31H32FN5O/c32-28-13-14-30(29(20-28)27-11-9-25(22-34)10-12-27)37-18-16-36(17-19-37)15-3-1-2-4-31(38)35-23-26-7-5-24(21-33)6-8-26/h5-14,20H,1-4,15-19,23H2,(H,35,38)

> <PUBCHEM_IUPAC_INCHIKEY>
AYKZPDMOUBNSMP-UHFFFAOYSA-N

> <PUBCHEM_XLOGP3_AA>
4.8

> <PUBCHEM_EXACT_MASS>
509.25908882

> <PUBCHEM_MOLECULAR_FORMULA>
C31H32FN5O

> <PUBCHEM_MOLECULAR_WEIGHT>
509.6

> <PUBCHEM_OPENEYE_CAN_SMILES>
C1CN(CCN1CCCCCC(=O)NCC2=CC=C(C=C2)C#N)C3=C(C=C(C=C3)F)C4=CC=C(C=C4)C#N

> <PUBCHEM_OPENEYE_ISO_SMILES>
C1CN(CCN1CCCCCC(=O)NCC2=CC=C(C=C2)C#N)C3=C(C=C(C=C3)F)C4=CC=C(C=C4)C#N

> <PUBCHEM_CACTVS_TPSA>
83.2

> <PUBCHEM_MONOISOTOPIC_WEIGHT>
509.25908882

> <PUBCHEM_TOTAL_CHARGE>
0

> <PUBCHEM_HEAVY_ATOM_COUNT>
38

> <PUBCHEM_ATOM_DEF_STEREO_COUNT>
0

> <PUBCHEM_ATOM_UDEF_STEREO_COUNT>
0

> <PUBCHEM_BOND_DEF_STEREO_COUNT>
0

> <PUBCHEM_BOND_UDEF_STEREO_COUNT>
0

> <PUBCHEM_ISOTOPIC_ATOM_COUNT>
0

> <PUBCHEM_COMPONENT_COUNT>
1

> <PUBCHEM_CACTVS_TAUTO_COUNT>
-1

> <PUBCHEM_COORDINATE_TYPE>
1
5
255

> <PUBCHEM_BONDANNOTATIONS>
14  17  8
14  18  8
17  21  8
18  22  8
20  25  8
20  26  8
21  23  8
22  23  8
25  27  8
26  28  8
27  30  8
28  30  8
31  32  8
31  33  8
32  35  8
33  36  8
35  37  8
36  37  8

$$$$
