155554006
  -OEChem-09292322412D

 69 71  0     1  0  0  0  0  0999 V2000
   11.6648    9.0482    0.0000 Cl  0  0  0  0  0  0  0  0  0  0  0  0
    7.1424   11.0469    0.0000 Cl  0  0  0  0  0  0  0  0  0  0  0  0
   13.6648    5.5841    0.0000 O   0  0  0  0  0  0  0  0  0  0  0  0
    5.2988    0.7540    0.0000 O   0  0  0  0  0  0  0  0  0  0  0  0
    9.2988    4.2181    0.0000 N   0  0  3  0  0  0  0  0  0  0  0  0
    5.2988    2.4860    0.0000 N   0  0  0  0  0  0  0  0  0  0  0  0
    3.2152    0.8153    0.0000 N   0  0  0  0  0  0  0  0  0  0  0  0
   10.7988    5.0841    0.0000 C   0  0  3  0  0  0  0  0  0  0  0  0
   11.6648    5.5841    0.0000 C   0  0  3  0  0  0  0  0  0  0  0  0
   11.6648    4.5841    0.0000 C   0  0  0  0  0  0  0  0  0  0  0  0
    9.7988    5.0841    0.0000 C   0  0  0  0  0  0  0  0  0  0  0  0
   12.1648    6.4501    0.0000 C   0  0  0  0  0  0  0  0  0  0  0  0
   13.1648    6.4501    0.0000 C   0  0  0  0  0  0  0  0  0  0  0  0
    8.2988    4.2181    0.0000 C   0  0  0  0  0  0  0  0  0  0  0  0
   11.6648    7.3162    0.0000 C   0  0  0  0  0  0  0  0  0  0  0  0
    9.7988    3.3520    0.0000 C   0  0  0  0  0  0  0  0  0  0  0  0
    7.7988    3.3520    0.0000 C   0  0  0  0  0  0  0  0  0  0  0  0
    9.2988    2.4860    0.0000 C   0  0  0  0  0  0  0  0  0  0  0  0
   13.6648    7.3162    0.0000 C   0  0  0  0  0  0  0  0  0  0  0  0
   12.1648    8.1822    0.0000 C   0  0  0  0  0  0  0  0  0  0  0  0
   13.1648    8.1822    0.0000 C   0  0  0  0  0  0  0  0  0  0  0  0
    6.7988    3.3520    0.0000 C   0  0  0  0  0  0  0  0  0  0  0  0
    9.7988    1.6200    0.0000 C   0  0  0  0  0  0  0  0  0  0  0  0
    6.2988    2.4860    0.0000 C   0  0  0  0  0  0  0  0  0  0  0  0
   14.6648    5.5841    0.0000 C   0  0  0  0  0  0  0  0  0  0  0  0
    4.7988    1.6200    0.0000 C   0  0  0  0  0  0  0  0  0  0  0  0
    3.7988    1.6200    0.0000 C   0  0  0  0  0  0  0  0  0  0  0  0
    3.2152    2.4247    0.0000 C   0  0  0  0  0  0  0  0  0  0  0  0
    2.2690    1.1200    0.0000 C   0  0  0  0  0  0  0  0  0  0  0  0
    2.2690    2.1200    0.0000 C   0  0  0  0  0  0  0  0  0  0  0  0
    1.4030    0.6200    0.0000 C   0  0  0  0  0  0  0  0  0  0  0  0
    1.4030    2.6200    0.0000 C   0  0  0  0  0  0  0  0  0  0  0  0
    0.5369    1.1200    0.0000 C   0  0  0  0  0  0  0  0  0  0  0  0
    0.5369    2.1200    0.0000 C   0  0  0  0  0  0  0  0  0  0  0  0
   10.6383    5.6830    0.0000 H   0  0  0  0  0  0  0  0  0  0  0  0
   11.2264    6.0225    0.0000 H   0  0  0  0  0  0  0  0  0  0  0  0
   11.4528    4.0015    0.0000 H   0  0  0  0  0  0  0  0  0  0  0  0
   12.2754    4.4764    0.0000 H   0  0  0  0  0  0  0  0  0  0  0  0
    9.9065    5.6947    0.0000 H   0  0  0  0  0  0  0  0  0  0  0  0
    9.2162    5.2962    0.0000 H   0  0  0  0  0  0  0  0  0  0  0  0
    8.4065    4.8287    0.0000 H   0  0  0  0  0  0  0  0  0  0  0  0
    7.7162    4.4301    0.0000 H   0  0  0  0  0  0  0  0  0  0  0  0
   11.0448    7.3162    0.0000 H   0  0  0  0  0  0  0  0  0  0  0  0
   10.2738    2.9535    0.0000 H   0  0  0  0  0  0  0  0  0  0  0  0
   10.2738    3.7506    0.0000 H   0  0  0  0  0  0  0  0  0  0  0  0
    7.6912    2.7415    0.0000 H   0  0  0  0  0  0  0  0  0  0  0  0
    8.3814    3.1400    0.0000 H   0  0  0  0  0  0  0  0  0  0  0  0
    8.8239    2.8846    0.0000 H   0  0  0  0  0  0  0  0  0  0  0  0
    8.8239    2.0875    0.0000 H   0  0  0  0  0  0  0  0  0  0  0  0
   14.2848    7.3162    0.0000 H   0  0  0  0  0  0  0  0  0  0  0  0
   13.4748    8.7191    0.0000 H   0  0  0  0  0  0  0  0  0  0  0  0
    6.9065    3.9626    0.0000 H   0  0  0  0  0  0  0  0  0  0  0  0
    6.2162    3.5641    0.0000 H   0  0  0  0  0  0  0  0  0  0  0  0
    9.2619    1.3100    0.0000 H   0  0  0  0  0  0  0  0  0  0  0  0
   10.1088    1.0831    0.0000 H   0  0  0  0  0  0  0  0  0  0  0  0
   10.3358    1.9300    0.0000 H   0  0  0  0  0  0  0  0  0  0  0  0
    6.1912    1.8754    0.0000 H   0  0  0  0  0  0  0  0  0  0  0  0
    6.8814    2.2740    0.0000 H   0  0  0  0  0  0  0  0  0  0  0  0
   14.6648    4.9641    0.0000 H   0  0  0  0  0  0  0  0  0  0  0  0
   15.2848    5.5841    0.0000 H   0  0  0  0  0  0  0  0  0  0  0  0
   14.6648    6.2041    0.0000 H   0  0  0  0  0  0  0  0  0  0  0  0
    4.9888    3.0230    0.0000 H   0  0  0  0  0  0  0  0  0  0  0  0
    3.4078    0.2259    0.0000 H   0  0  0  0  0  0  0  0  0  0  0  0
    3.4078    3.0140    0.0000 H   0  0  0  0  0  0  0  0  0  0  0  0
    1.4030    0.0000    0.0000 H   0  0  0  0  0  0  0  0  0  0  0  0
    1.4030    3.2400    0.0000 H   0  0  0  0  0  0  0  0  0  0  0  0
    0.0000    0.8100    0.0000 H   0  0  0  0  0  0  0  0  0  0  0  0
    0.0000    2.4300    0.0000 H   0  0  0  0  0  0  0  0  0  0  0  0
    8.1424   11.0469    0.0000 H   0  0  0  0  0  0  0  0  0  0  0  0
  1 20  1  0  0  0  0
  2 69  1  0  0  0  0
  3 13  1  0  0  0  0
  3 25  1  0  0  0  0
  4 26  2  0  0  0  0
  5 11  1  0  0  0  0
  5 14  1  0  0  0  0
  5 16  1  0  0  0  0
  6 24  1  0  0  0  0
  6 26  1  0  0  0  0
  6 62  1  0  0  0  0
  7 27  1  0  0  0  0
  7 29  1  0  0  0  0
  7 63  1  0  0  0  0
  8  9  1  0  0  0  0
  8 10  1  0  0  0  0
  8 11  1  0  0  0  0
  8 35  1  0  0  0  0
  9 10  1  0  0  0  0
  9 12  1  0  0  0  0
  9 36  1  0  0  0  0
 10 37  1  0  0  0  0
 10 38  1  0  0  0  0
 11 39  1  0  0  0  0
 11 40  1  0  0  0  0
 12 13  2  0  0  0  0
 12 15  1  0  0  0  0
 13 19  1  0  0  0  0
 14 17  1  0  0  0  0
 14 41  1  0  0  0  0
 14 42  1  0  0  0  0
 15 20  2  0  0  0  0
 15 43  1  0  0  0  0
 16 18  1  0  0  0  0
 16 44  1  0  0  0  0
 16 45  1  0  0  0  0
 17 22  1  0  0  0  0
 17 46  1  0  0  0  0
 17 47  1  0  0  0  0
 18 23  1  0  0  0  0
 18 48  1  0  0  0  0
 18 49  1  0  0  0  0
 19 21  2  0  0  0  0
 19 50  1  0  0  0  0
 20 21  1  0  0  0  0
 21 51  1  0  0  0  0
 22 24  1  0  0  0  0
 22 52  1  0  0  0  0
 22 53  1  0  0  0  0
 23 54  1  0  0  0  0
 23 55  1  0  0  0  0
 23 56  1  0  0  0  0
 24 57  1  0  0  0  0
 24 58  1  0  0  0  0
 25 59  1  0  0  0  0
 25 60  1  0  0  0  0
 25 61  1  0  0  0  0
 26 27  1  0  0  0  0
 27 28  2  0  0  0  0
 28 30  1  0  0  0  0
 28 64  1  0  0  0  0
 29 30  1  0  0  0  0
 29 31  2  0  0  0  0
 30 32  2  0  0  0  0
 31 33  1  0  0  0  0
 31 65  1  0  0  0  0
 32 34  1  0  0  0  0
 32 66  1  0  0  0  0
 33 34  2  0  0  0  0
 33 67  1  0  0  0  0
 34 68  1  0  0  0  0
M  END
> <PUBCHEM_COMPOUND_CID>
155554006

> <PUBCHEM_COMPOUND_CANONICALIZED>
1

> <PUBCHEM_CACTVS_COMPLEXITY>
620

> <PUBCHEM_CACTVS_HBOND_ACCEPTOR>
3

> <PUBCHEM_CACTVS_HBOND_DONOR>
3

> <PUBCHEM_CACTVS_ROTATABLE_BOND>
12

> <PUBCHEM_CACTVS_SUBSKEYS>
AAADcfB7MAAGAAAAAAAAAAAAGAAAAWAAAAAwYAAAAAAAAFgB9AAAHgIQAAAADQ7BniYyxvPJlACoAyVyVACCiCAnJyAImaG+btgMZvLFt7uUMShk1hHI6YeY2eKegCAAIAAKAAAAQABAABQAAAAAAAAAAA==

> <PUBCHEM_IUPAC_OPENEYE_NAME>
N-[4-[[2-(5-chloro-2-methoxy-phenyl)cyclopropyl]methyl-propyl-amino]butyl]-1H-indole-2-carboxamide;hydrochloride

> <PUBCHEM_IUPAC_CAS_NAME>
N-[4-[[2-(5-chloro-2-methoxyphenyl)cyclopropyl]methyl-propylamino]butyl]-1H-indole-2-carboxamide;hydrochloride

> <PUBCHEM_IUPAC_NAME_MARKUP>
<I>N</I>-[4-[[2-(5-chloro-2-methoxyphenyl)cyclopropyl]methyl-propylamino]butyl]-1<I>H</I>-indole-2-carboxamide;hydrochloride

> <PUBCHEM_IUPAC_NAME>
N-[4-[[2-(5-chloro-2-methoxyphenyl)cyclopropyl]methyl-propylamino]butyl]-1H-indole-2-carboxamide;hydrochloride

> <PUBCHEM_IUPAC_SYSTEMATIC_NAME>
N-[4-[[2-(5-chloranyl-2-methoxy-phenyl)cyclopropyl]methyl-propyl-amino]butyl]-1H-indole-2-carboxamide;hydrochloride

> <PUBCHEM_IUPAC_TRADITIONAL_NAME>
N-[4-[[2-(5-chloro-2-methoxy-phenyl)cyclopropyl]methyl-propyl-amino]butyl]-1H-indole-2-carboxamide;hydrochloride

> <PUBCHEM_IUPAC_INCHI>
InChI=1S/C27H34ClN3O2.ClH/c1-3-13-31(18-20-15-22(20)23-17-21(28)10-11-26(23)33-2)14-7-6-12-29-27(32)25-16-19-8-4-5-9-24(19)30-25;/h4-5,8-11,16-17,20,22,30H,3,6-7,12-15,18H2,1-2H3,(H,29,32);1H

> <PUBCHEM_IUPAC_INCHIKEY>
XQXLIZUFYLRIQF-UHFFFAOYSA-N

> <PUBCHEM_EXACT_MASS>
503.2106328

> <PUBCHEM_MOLECULAR_FORMULA>
C27H35Cl2N3O2

> <PUBCHEM_MOLECULAR_WEIGHT>
504.5

> <PUBCHEM_OPENEYE_CAN_SMILES>
CCCN(CCCCNC(=O)C1=CC2=CC=CC=C2N1)CC3CC3C4=C(C=CC(=C4)Cl)OC.Cl

> <PUBCHEM_OPENEYE_ISO_SMILES>
CCCN(CCCCNC(=O)C1=CC2=CC=CC=C2N1)CC3CC3C4=C(C=CC(=C4)Cl)OC.Cl

> <PUBCHEM_CACTVS_TPSA>
57.4

> <PUBCHEM_MONOISOTOPIC_WEIGHT>
503.2106328

> <PUBCHEM_TOTAL_CHARGE>
0

> <PUBCHEM_HEAVY_ATOM_COUNT>
34

> <PUBCHEM_ATOM_DEF_STEREO_COUNT>
0

> <PUBCHEM_ATOM_UDEF_STEREO_COUNT>
2

> <PUBCHEM_BOND_DEF_STEREO_COUNT>
0

> <PUBCHEM_BOND_UDEF_STEREO_COUNT>
0

> <PUBCHEM_ISOTOPIC_ATOM_COUNT>
0

> <PUBCHEM_COMPONENT_COUNT>
2

> <PUBCHEM_CACTVS_TAUTO_COUNT>
-1

> <PUBCHEM_COORDINATE_TYPE>
1
5
255

> <PUBCHEM_BONDANNOTATIONS>
12  13  8
12  15  8
13  19  8
15  20  8
19  21  8
20  21  8
27  28  8
28  30  8
29  30  8
29  31  8
30  32  8
31  33  8
32  34  8
33  34  8
7  27  8
7  29  8
8  11  3
9  12  3

$$$$
