11722531
  -OEChem-09292322132D

 51 52  0     1  0  0  0  0  0999 V2000
    8.9387   -1.2896    0.0000 O   0  0  0  0  0  0  0  0  0  0  0  0
    7.2068   -1.2696    0.0000 O   0  0  0  0  0  0  0  0  0  0  0  0
    4.5981    0.2549    0.0000 N   0  0  0  0  0  0  0  0  0  0  0  0
    5.4641    0.7549    0.0000 C   0  0  1  0  0  0  0  0  0  0  0  0
    6.3301    0.2549    0.0000 C   0  0  2  0  0  0  0  0  0  0  0  0
    5.4641    1.7549    0.0000 C   0  0  0  0  0  0  0  0  0  0  0  0
    7.1962    0.7549    0.0000 C   0  0  0  0  0  0  0  0  0  0  0  0
    6.3301    2.2549    0.0000 C   0  0  0  0  0  0  0  0  0  0  0  0
    7.1962    1.7549    0.0000 C   0  0  0  0  0  0  0  0  0  0  0  0
    6.3301   -0.7451    0.0000 C   0  0  0  0  0  0  0  0  0  0  0  0
    3.7320    0.7549    0.0000 C   0  0  0  0  0  0  0  0  0  0  0  0
    4.5981   -0.7451    0.0000 C   0  0  0  0  0  0  0  0  0  0  0  0
    8.0901    0.2203    0.0000 C   0  0  0  0  0  0  0  0  0  0  0  0
    8.0901    2.2896    0.0000 C   0  0  0  0  0  0  0  0  0  0  0  0
    2.8660    0.2549    0.0000 C   0  0  0  0  0  0  0  0  0  0  0  0
    3.7320   -1.2451    0.0000 C   0  0  0  0  0  0  0  0  0  0  0  0
    8.9962    0.7341    0.0000 C   0  0  0  0  0  0  0  0  0  0  0  0
    8.9962    1.7757    0.0000 C   0  0  0  0  0  0  0  0  0  0  0  0
    8.0785   -0.7797    0.0000 C   0  0  0  0  0  0  0  0  0  0  0  0
    2.0000    0.7549    0.0000 C   0  0  0  0  0  0  0  0  0  0  0  0
    3.7320   -2.2451    0.0000 C   0  0  0  0  0  0  0  0  0  0  0  0
    8.9271   -2.2896    0.0000 C   0  0  0  0  0  0  0  0  0  0  0  0
    5.4641    0.1349    0.0000 H   0  0  0  0  0  0  0  0  0  0  0  0
    6.8671   -0.0551    0.0000 H   0  0  0  0  0  0  0  0  0  0  0  0
    5.2520    2.3375    0.0000 H   0  0  0  0  0  0  0  0  0  0  0  0
    4.8535    1.6473    0.0000 H   0  0  0  0  0  0  0  0  0  0  0  0
    6.7287    2.7299    0.0000 H   0  0  0  0  0  0  0  0  0  0  0  0
    5.9316    2.7299    0.0000 H   0  0  0  0  0  0  0  0  0  0  0  0
    5.7101   -0.7451    0.0000 H   0  0  0  0  0  0  0  0  0  0  0  0
    6.3301   -1.3651    0.0000 H   0  0  0  0  0  0  0  0  0  0  0  0
    6.9501   -0.7451    0.0000 H   0  0  0  0  0  0  0  0  0  0  0  0
    4.1306    1.2299    0.0000 H   0  0  0  0  0  0  0  0  0  0  0  0
    3.3335    1.2299    0.0000 H   0  0  0  0  0  0  0  0  0  0  0  0
    4.8101   -1.3277    0.0000 H   0  0  0  0  0  0  0  0  0  0  0  0
    5.2087   -0.6374    0.0000 H   0  0  0  0  0  0  0  0  0  0  0  0
    8.0829    2.9095    0.0000 H   0  0  0  0  0  0  0  0  0  0  0  0
    2.4675   -0.2200    0.0000 H   0  0  0  0  0  0  0  0  0  0  0  0
    3.2646   -0.2200    0.0000 H   0  0  0  0  0  0  0  0  0  0  0  0
    3.5200   -0.6625    0.0000 H   0  0  0  0  0  0  0  0  0  0  0  0
    3.1215   -1.3527    0.0000 H   0  0  0  0  0  0  0  0  0  0  0  0
    9.5319    0.4220    0.0000 H   0  0  0  0  0  0  0  0  0  0  0  0
    9.5319    2.0878    0.0000 H   0  0  0  0  0  0  0  0  0  0  0  0
    2.3100    1.2919    0.0000 H   0  0  0  0  0  0  0  0  0  0  0  0
    1.4631    1.0649    0.0000 H   0  0  0  0  0  0  0  0  0  0  0  0
    1.6900    0.2180    0.0000 H   0  0  0  0  0  0  0  0  0  0  0  0
    3.1120   -2.2451    0.0000 H   0  0  0  0  0  0  0  0  0  0  0  0
    3.7320   -2.8651    0.0000 H   0  0  0  0  0  0  0  0  0  0  0  0
    4.3520   -2.2451    0.0000 H   0  0  0  0  0  0  0  0  0  0  0  0
    8.3072   -2.2824    0.0000 H   0  0  0  0  0  0  0  0  0  0  0  0
    8.9200   -2.9095    0.0000 H   0  0  0  0  0  0  0  0  0  0  0  0
    9.5471   -2.2968    0.0000 H   0  0  0  0  0  0  0  0  0  0  0  0
  1 19  1  0  0  0  0
  1 22  1  0  0  0  0
  2 19  2  0  0  0  0
  4  3  1  6  0  0  0
  3 11  1  0  0  0  0
  3 12  1  0  0  0  0
  4  5  1  0  0  0  0
  4  6  1  0  0  0  0
  4 23  1  0  0  0  0
  5  7  1  0  0  0  0
  5 10  1  6  0  0  0
  5 24  1  0  0  0  0
  6  8  1  0  0  0  0
  6 25  1  0  0  0  0
  6 26  1  0  0  0  0
  7  9  2  0  0  0  0
  7 13  1  0  0  0  0
  8  9  1  0  0  0  0
  8 27  1  0  0  0  0
  8 28  1  0  0  0  0
  9 14  1  0  0  0  0
 10 29  1  0  0  0  0
 10 30  1  0  0  0  0
 10 31  1  0  0  0  0
 11 15  1  0  0  0  0
 11 32  1  0  0  0  0
 11 33  1  0  0  0  0
 12 16  1  0  0  0  0
 12 34  1  0  0  0  0
 12 35  1  0  0  0  0
 13 17  2  0  0  0  0
 13 19  1  0  0  0  0
 14 18  2  0  0  0  0
 14 36  1  0  0  0  0
 15 20  1  0  0  0  0
 15 37  1  0  0  0  0
 15 38  1  0  0  0  0
 16 21  1  0  0  0  0
 16 39  1  0  0  0  0
 16 40  1  0  0  0  0
 17 18  1  0  0  0  0
 17 41  1  0  0  0  0
 18 42  1  0  0  0  0
 20 43  1  0  0  0  0
 20 44  1  0  0  0  0
 20 45  1  0  0  0  0
 21 46  1  0  0  0  0
 21 47  1  0  0  0  0
 21 48  1  0  0  0  0
 22 49  1  0  0  0  0
 22 50  1  0  0  0  0
 22 51  1  0  0  0  0
M  END
> <PUBCHEM_COMPOUND_CID>
11722531

> <PUBCHEM_COMPOUND_CANONICALIZED>
1

> <PUBCHEM_CACTVS_COMPLEXITY>
351

> <PUBCHEM_CACTVS_HBOND_ACCEPTOR>
3

> <PUBCHEM_CACTVS_HBOND_DONOR>
0

> <PUBCHEM_CACTVS_ROTATABLE_BOND>
7

> <PUBCHEM_CACTVS_SUBSKEYS>
AAADceB6MAAAAAAAAAAAAAAAAAAAAAAAAAAwYAAAAAAAAADBAAAAHgAAAAAADSjBmAYyCIMABACIAiDSCAACAAAkAAAIiAEICMgIJjKAtRmEMQAkwAGIqYeY2eOegAACAAAQAAAQAASAACQAAAAAAAAAAA==

> <PUBCHEM_IUPAC_OPENEYE_NAME>
methyl (3R,4S)-3-(dipropylamino)-4-methyl-tetralin-5-carboxylate

> <PUBCHEM_IUPAC_CAS_NAME>
(7R,8S)-7-(dipropylamino)-8-methyl-5,6,7,8-tetrahydronaphthalene-1-carboxylic acid methyl ester

> <PUBCHEM_IUPAC_NAME_MARKUP>
methyl (7<I>R</I>,8<I>S</I>)-7-(dipropylamino)-8-methyl-5,6,7,8-tetrahydronaphthalene-1-carboxylate

> <PUBCHEM_IUPAC_NAME>
methyl (7R,8S)-7-(dipropylamino)-8-methyl-5,6,7,8-tetrahydronaphthalene-1-carboxylate

> <PUBCHEM_IUPAC_SYSTEMATIC_NAME>
methyl (7R,8S)-7-(dipropylamino)-8-methyl-5,6,7,8-tetrahydronaphthalene-1-carboxylate

> <PUBCHEM_IUPAC_TRADITIONAL_NAME>
(3R,4S)-3-(dipropylamino)-4-methyl-tetralin-5-carboxylic acid methyl ester

> <PUBCHEM_IUPAC_INCHI>
InChI=1S/C19H29NO2/c1-5-12-20(13-6-2)17-11-10-15-8-7-9-16(19(21)22-4)18(15)14(17)3/h7-9,14,17H,5-6,10-13H2,1-4H3/t14-,17-/m1/s1

> <PUBCHEM_IUPAC_INCHIKEY>
ZXWIDAPGUOZUDB-RHSMWYFYSA-N

> <PUBCHEM_XLOGP3_AA>
4.6

> <PUBCHEM_EXACT_MASS>
303.219829168

> <PUBCHEM_MOLECULAR_FORMULA>
C19H29NO2

> <PUBCHEM_MOLECULAR_WEIGHT>
303.4

> <PUBCHEM_OPENEYE_CAN_SMILES>
CCCN(CCC)C1CCC2=C(C1C)C(=CC=C2)C(=O)OC

> <PUBCHEM_OPENEYE_ISO_SMILES>
CCCN(CCC)[C@@H]1CCC2=C([C@@H]1C)C(=CC=C2)C(=O)OC

> <PUBCHEM_CACTVS_TPSA>
29.5

> <PUBCHEM_MONOISOTOPIC_WEIGHT>
303.219829168

> <PUBCHEM_TOTAL_CHARGE>
0

> <PUBCHEM_HEAVY_ATOM_COUNT>
22

> <PUBCHEM_ATOM_DEF_STEREO_COUNT>
2

> <PUBCHEM_ATOM_UDEF_STEREO_COUNT>
0

> <PUBCHEM_BOND_DEF_STEREO_COUNT>
0

> <PUBCHEM_BOND_UDEF_STEREO_COUNT>
0

> <PUBCHEM_ISOTOPIC_ATOM_COUNT>
0

> <PUBCHEM_COMPONENT_COUNT>
1

> <PUBCHEM_CACTVS_TAUTO_COUNT>
-1

> <PUBCHEM_COORDINATE_TYPE>
1
5
255

> <PUBCHEM_BONDANNOTATIONS>
13  17  8
14  18  8
17  18  8
4  3  6
5  10  6
7  13  8
7  9  8
9  14  8

$$$$
