138671140
  -OEChem-09292322452D

 73 77  0     1  0  0  0  0  0999 V2000
   17.0834    3.5114    0.0000 F   0  0  0  0  0  0  0  0  0  0  0  0
   18.4509    3.1506    0.0000 F   0  0  0  0  0  0  0  0  0  0  0  0
   18.0901    1.7832    0.0000 F   0  0  0  0  0  0  0  0  0  0  0  0
    5.5000   -0.9816    0.0000 O   0  0  0  0  0  0  0  0  0  0  0  0
   11.0000    1.6165    0.0000 N   0  0  3  0  0  0  0  0  0  0  0  0
    5.5000    0.7505    0.0000 N   0  0  0  0  0  0  0  0  0  0  0  0
   14.0846    2.6512    0.0000 N   0  0  0  0  0  0  0  0  0  0  0  0
   14.9907    1.0957    0.0000 N   0  0  0  0  0  0  0  0  0  0  0  0
    3.0000   -2.5114    0.0000 N   0  0  0  0  0  0  0  0  0  0  0  0
    2.1953   -1.9278    0.0000 N   0  0  0  0  0  0  0  0  0  0  0  0
    8.5000    0.7505    0.0000 C   0  0  0  0  0  0  0  0  0  0  0  0
    8.0000    1.6165    0.0000 C   0  0  0  0  0  0  0  0  0  0  0  0
    8.0000   -0.1156    0.0000 C   0  0  0  0  0  0  0  0  0  0  0  0
    6.5000    0.7505    0.0000 C   0  0  0  0  0  0  0  0  0  0  0  0
    7.0000    1.6165    0.0000 C   0  0  0  0  0  0  0  0  0  0  0  0
    7.0000   -0.1156    0.0000 C   0  0  0  0  0  0  0  0  0  0  0  0
    9.5000    0.7505    0.0000 C   0  0  0  0  0  0  0  0  0  0  0  0
   10.0000    1.6165    0.0000 C   0  0  0  0  0  0  0  0  0  0  0  0
   11.4339    0.7155    0.0000 C   0  0  0  0  0  0  0  0  0  0  0  0
   11.4339    2.5175    0.0000 C   0  0  0  0  0  0  0  0  0  0  0  0
   12.4088    0.4930    0.0000 C   0  0  0  0  0  0  0  0  0  0  0  0
   12.4088    2.7400    0.0000 C   0  0  0  0  0  0  0  0  0  0  0  0
    5.0000   -0.1156    0.0000 C   0  0  0  0  0  0  0  0  0  0  0  0
   13.1906    1.1165    0.0000 C   0  0  0  0  0  0  0  0  0  0  0  0
   13.1906    2.1165    0.0000 C   0  0  0  0  0  0  0  0  0  0  0  0
    4.0000   -0.1156    0.0000 C   0  0  0  0  0  0  0  0  0  0  0  0
   14.0846    0.5818    0.0000 C   0  0  0  0  0  0  0  0  0  0  0  0
    3.5000   -0.9816    0.0000 C   0  0  0  0  0  0  0  0  0  0  0  0
   14.9907    2.1373    0.0000 C   0  0  0  0  0  0  0  0  0  0  0  0
    3.5000    0.7505    0.0000 C   0  0  0  0  0  0  0  0  0  0  0  0
    2.5000   -0.9816    0.0000 C   0  0  0  0  0  0  0  0  0  0  0  0
   15.8547    2.6406    0.0000 C   0  0  0  0  0  0  0  0  0  0  0  0
    3.8047   -1.9278    0.0000 C   0  0  0  0  0  0  0  0  0  0  0  0
    2.5000    0.7505    0.0000 C   0  0  0  0  0  0  0  0  0  0  0  0
    2.0000   -0.1156    0.0000 C   0  0  0  0  0  0  0  0  0  0  0  0
   16.7227    2.1440    0.0000 C   0  0  0  0  0  0  0  0  0  0  0  0
   17.5868    2.6473    0.0000 C   0  0  0  0  0  0  0  0  0  0  0  0
    3.0000   -3.5114    0.0000 C   0  0  0  0  0  0  0  0  0  0  0  0
    8.8100    0.2135    0.0000 H   0  0  0  0  0  0  0  0  0  0  0  0
    8.5826    1.8286    0.0000 H   0  0  0  0  0  0  0  0  0  0  0  0
    7.8923    2.2271    0.0000 H   0  0  0  0  0  0  0  0  0  0  0  0
    7.8923   -0.7261    0.0000 H   0  0  0  0  0  0  0  0  0  0  0  0
    8.5826   -0.3276    0.0000 H   0  0  0  0  0  0  0  0  0  0  0  0
    6.1900    0.2135    0.0000 H   0  0  0  0  0  0  0  0  0  0  0  0
    7.1077    2.2271    0.0000 H   0  0  0  0  0  0  0  0  0  0  0  0
    6.4174    1.8286    0.0000 H   0  0  0  0  0  0  0  0  0  0  0  0
    6.4174   -0.3276    0.0000 H   0  0  0  0  0  0  0  0  0  0  0  0
    7.1077   -0.7261    0.0000 H   0  0  0  0  0  0  0  0  0  0  0  0
    9.3923    0.1399    0.0000 H   0  0  0  0  0  0  0  0  0  0  0  0
   10.0826    0.5384    0.0000 H   0  0  0  0  0  0  0  0  0  0  0  0
   10.1077    2.2271    0.0000 H   0  0  0  0  0  0  0  0  0  0  0  0
    9.4174    1.8286    0.0000 H   0  0  0  0  0  0  0  0  0  0  0  0
    5.1900    1.2874    0.0000 H   0  0  0  0  0  0  0  0  0  0  0  0
   10.8294    0.5776    0.0000 H   0  0  0  0  0  0  0  0  0  0  0  0
   11.4339    0.0955    0.0000 H   0  0  0  0  0  0  0  0  0  0  0  0
   11.4339    3.1375    0.0000 H   0  0  0  0  0  0  0  0  0  0  0  0
   10.8294    2.6554    0.0000 H   0  0  0  0  0  0  0  0  0  0  0  0
   12.1398   -0.0656    0.0000 H   0  0  0  0  0  0  0  0  0  0  0  0
   12.8935    0.1064    0.0000 H   0  0  0  0  0  0  0  0  0  0  0  0
   12.8935    3.1266    0.0000 H   0  0  0  0  0  0  0  0  0  0  0  0
   12.1398    3.2986    0.0000 H   0  0  0  0  0  0  0  0  0  0  0  0
   14.0774   -0.0381    0.0000 H   0  0  0  0  0  0  0  0  0  0  0  0
    3.8100    1.2874    0.0000 H   0  0  0  0  0  0  0  0  0  0  0  0
   16.2514    3.1171    0.0000 H   0  0  0  0  0  0  0  0  0  0  0  0
   15.4544    3.1141    0.0000 H   0  0  0  0  0  0  0  0  0  0  0  0
    4.3940   -2.1204    0.0000 H   0  0  0  0  0  0  0  0  0  0  0  0
    2.1900    1.2874    0.0000 H   0  0  0  0  0  0  0  0  0  0  0  0
    1.3800   -0.1156    0.0000 H   0  0  0  0  0  0  0  0  0  0  0  0
   16.3260    1.6675    0.0000 H   0  0  0  0  0  0  0  0  0  0  0  0
   17.1230    1.6706    0.0000 H   0  0  0  0  0  0  0  0  0  0  0  0
    2.3800   -3.5114    0.0000 H   0  0  0  0  0  0  0  0  0  0  0  0
    3.0000   -4.1314    0.0000 H   0  0  0  0  0  0  0  0  0  0  0  0
    3.6200   -3.5114    0.0000 H   0  0  0  0  0  0  0  0  0  0  0  0
  1 37  1  0  0  0  0
  2 37  1  0  0  0  0
  3 37  1  0  0  0  0
  4 23  2  0  0  0  0
  5 18  1  0  0  0  0
  5 19  1  0  0  0  0
  5 20  1  0  0  0  0
  6 14  1  0  0  0  0
  6 23  1  0  0  0  0
  6 53  1  0  0  0  0
  7 25  2  0  0  0  0
  7 29  1  0  0  0  0
  8 27  1  0  0  0  0
  8 29  2  0  0  0  0
  9 10  1  0  0  0  0
  9 33  1  0  0  0  0
  9 38  1  0  0  0  0
 10 31  2  0  0  0  0
 11 12  1  0  0  0  0
 11 13  1  0  0  0  0
 11 17  1  0  0  0  0
 11 39  1  0  0  0  0
 12 15  1  0  0  0  0
 12 40  1  0  0  0  0
 12 41  1  0  0  0  0
 13 16  1  0  0  0  0
 13 42  1  0  0  0  0
 13 43  1  0  0  0  0
 14 15  1  0  0  0  0
 14 16  1  0  0  0  0
 14 44  1  0  0  0  0
 15 45  1  0  0  0  0
 15 46  1  0  0  0  0
 16 47  1  0  0  0  0
 16 48  1  0  0  0  0
 17 18  1  0  0  0  0
 17 49  1  0  0  0  0
 17 50  1  0  0  0  0
 18 51  1  0  0  0  0
 18 52  1  0  0  0  0
 19 21  1  0  0  0  0
 19 54  1  0  0  0  0
 19 55  1  0  0  0  0
 20 22  1  0  0  0  0
 20 56  1  0  0  0  0
 20 57  1  0  0  0  0
 21 24  1  0  0  0  0
 21 58  1  0  0  0  0
 21 59  1  0  0  0  0
 22 25  1  0  0  0  0
 22 60  1  0  0  0  0
 22 61  1  0  0  0  0
 23 26  1  0  0  0  0
 24 25  1  0  0  0  0
 24 27  2  0  0  0  0
 26 28  1  0  0  0  0
 26 30  2  0  0  0  0
 27 62  1  0  0  0  0
 28 31  1  0  0  0  0
 28 33  2  0  0  0  0
 29 32  1  0  0  0  0
 30 34  1  0  0  0  0
 30 63  1  0  0  0  0
 31 35  1  0  0  0  0
 32 36  1  0  0  0  0
 32 64  1  0  0  0  0
 32 65  1  0  0  0  0
 33 66  1  0  0  0  0
 34 35  2  0  0  0  0
 34 67  1  0  0  0  0
 35 68  1  0  0  0  0
 36 37  1  0  0  0  0
 36 69  1  0  0  0  0
 36 70  1  0  0  0  0
 38 71  1  0  0  0  0
 38 72  1  0  0  0  0
 38 73  1  0  0  0  0
M  END
> <PUBCHEM_COMPOUND_CID>
138671140

> <PUBCHEM_COMPOUND_CANONICALIZED>
1

> <PUBCHEM_CACTVS_COMPLEXITY>
776

> <PUBCHEM_CACTVS_HBOND_ACCEPTOR>
8

> <PUBCHEM_CACTVS_HBOND_DONOR>
1

> <PUBCHEM_CACTVS_ROTATABLE_BOND>
7

> <PUBCHEM_CACTVS_SUBSKEYS>
AAADcfB7oYAAAAAAAAAAAAAAAAAAAWAAAAA8YIAABYAAAFgB/AAAHwAYAAAADSjBnxQ/0PfIEACqAzd3dACShCk1gqAZ2KE4ZNiIKLLA3dGEpQhongLIyacciICOgAAAQAASAAAQAACAACQAAAAAAAAAAA==

> <PUBCHEM_IUPAC_OPENEYE_NAME>
2-methyl-N-[4-[2-[2-(3,3,3-trifluoropropyl)-5,6,8,9-tetrahydropyrimido[4,5-d]azepin-7-yl]ethyl]cyclohexyl]indazole-4-carboxamide

> <PUBCHEM_IUPAC_CAS_NAME>
2-methyl-N-[4-[2-[2-(3,3,3-trifluoropropyl)-5,6,8,9-tetrahydropyrimido[4,5-d]azepin-7-yl]ethyl]cyclohexyl]-4-indazolecarboxamide

> <PUBCHEM_IUPAC_NAME_MARKUP>
2-methyl-<I>N</I>-[4-[2-[2-(3,3,3-trifluoropropyl)-5,6,8,9-tetrahydropyrimido[4,5-d]azepin-7-yl]ethyl]cyclohexyl]indazole-4-carboxamide

> <PUBCHEM_IUPAC_NAME>
2-methyl-N-[4-[2-[2-(3,3,3-trifluoropropyl)-5,6,8,9-tetrahydropyrimido[4,5-d]azepin-7-yl]ethyl]cyclohexyl]indazole-4-carboxamide

> <PUBCHEM_IUPAC_SYSTEMATIC_NAME>
2-methyl-N-[4-[2-[2-[3,3,3-tris(fluoranyl)propyl]-5,6,8,9-tetrahydropyrimido[4,5-d]azepin-7-yl]ethyl]cyclohexyl]indazole-4-carboxamide

> <PUBCHEM_IUPAC_TRADITIONAL_NAME>
2-methyl-N-[4-[2-[2-(3,3,3-trifluoropropyl)-5,6,8,9-tetrahydropyrimid[4,5-d]azepin-7-yl]ethyl]cyclohexyl]indazole-4-carboxamide

> <PUBCHEM_IUPAC_INCHI>
InChI=1S/C28H35F3N6O/c1-36-18-23-22(3-2-4-25(23)35-36)27(38)33-21-7-5-19(6-8-21)10-14-37-15-11-20-17-32-26(9-13-28(29,30)31)34-24(20)12-16-37/h2-4,17-19,21H,5-16H2,1H3,(H,33,38)

> <PUBCHEM_IUPAC_INCHIKEY>
UWKSEIMVPIPCAP-UHFFFAOYSA-N

> <PUBCHEM_XLOGP3_AA>
4.8

> <PUBCHEM_EXACT_MASS>
528.28244425

> <PUBCHEM_MOLECULAR_FORMULA>
C28H35F3N6O

> <PUBCHEM_MOLECULAR_WEIGHT>
528.6

> <PUBCHEM_OPENEYE_CAN_SMILES>
CN1C=C2C(=N1)C=CC=C2C(=O)NC3CCC(CC3)CCN4CCC5=CN=C(N=C5CC4)CCC(F)(F)F

> <PUBCHEM_OPENEYE_ISO_SMILES>
CN1C=C2C(=N1)C=CC=C2C(=O)NC3CCC(CC3)CCN4CCC5=CN=C(N=C5CC4)CCC(F)(F)F

> <PUBCHEM_CACTVS_TPSA>
75.9

> <PUBCHEM_MONOISOTOPIC_WEIGHT>
528.28244425

> <PUBCHEM_TOTAL_CHARGE>
0

> <PUBCHEM_HEAVY_ATOM_COUNT>
38

> <PUBCHEM_ATOM_DEF_STEREO_COUNT>
0

> <PUBCHEM_ATOM_UDEF_STEREO_COUNT>
0

> <PUBCHEM_BOND_DEF_STEREO_COUNT>
0

> <PUBCHEM_BOND_UDEF_STEREO_COUNT>
0

> <PUBCHEM_ISOTOPIC_ATOM_COUNT>
0

> <PUBCHEM_COMPONENT_COUNT>
1

> <PUBCHEM_CACTVS_TAUTO_COUNT>
-1

> <PUBCHEM_COORDINATE_TYPE>
1
5
255

> <PUBCHEM_BONDANNOTATIONS>
10  31  8
24  25  8
24  27  8
26  28  8
26  30  8
28  31  8
28  33  8
30  34  8
31  35  8
34  35  8
7  25  8
7  29  8
8  27  8
8  29  8
9  10  8
9  33  8

$$$$
