118714498
  -OEChem-09292322352D

 59 61  0     0  0  0  0  0  0999 V2000
    3.0000   -4.0950    0.0000 S   0  0  0  0  0  0  0  0  0  0  0  0
   10.7942    5.4050    0.0000 F   0  0  0  0  0  0  0  0  0  0  0  0
   11.7942    4.4050    0.0000 F   0  0  0  0  0  0  0  0  0  0  0  0
    9.7942    4.4050    0.0000 F   0  0  0  0  0  0  0  0  0  0  0  0
    2.0000   -4.0950    0.0000 O   0  0  0  0  0  0  0  0  0  0  0  0
    4.0000   -4.0950    0.0000 O   0  0  0  0  0  0  0  0  0  0  0  0
    7.3301    0.4050    0.0000 N   0  0  0  0  0  0  0  0  0  0  0  0
    3.0000   -3.0950    0.0000 N   0  0  0  0  0  0  0  0  0  0  0  0
    9.0622    1.4050    0.0000 N   0  0  0  0  0  0  0  0  0  0  0  0
    3.0000   -5.0950    0.0000 N   0  0  0  0  0  0  0  0  0  0  0  0
   13.3923    0.9050    0.0000 N   0  0  0  0  0  0  0  0  0  0  0  0
    5.5981   -1.5950    0.0000 C   0  0  0  0  0  0  0  0  0  0  0  0
    5.5981   -2.5950    0.0000 C   0  0  0  0  0  0  0  0  0  0  0  0
    4.7320   -1.0950    0.0000 C   0  0  0  0  0  0  0  0  0  0  0  0
    3.8660   -2.5950    0.0000 C   0  0  0  0  0  0  0  0  0  0  0  0
    4.7320   -3.0950    0.0000 C   0  0  0  0  0  0  0  0  0  0  0  0
    3.8660   -1.5950    0.0000 C   0  0  0  0  0  0  0  0  0  0  0  0
    6.4641   -1.0950    0.0000 C   0  0  0  0  0  0  0  0  0  0  0  0
    6.4641   -0.0950    0.0000 C   0  0  0  0  0  0  0  0  0  0  0  0
    8.1962   -0.0950    0.0000 C   0  0  0  0  0  0  0  0  0  0  0  0
    7.3301    1.4050    0.0000 C   0  0  0  0  0  0  0  0  0  0  0  0
    9.0622    0.4050    0.0000 C   0  0  0  0  0  0  0  0  0  0  0  0
    8.1962    1.9050    0.0000 C   0  0  0  0  0  0  0  0  0  0  0  0
    9.9282    1.9050    0.0000 C   0  0  0  0  0  0  0  0  0  0  0  0
    9.9282    2.9050    0.0000 C   0  0  0  0  0  0  0  0  0  0  0  0
   10.7942    1.4050    0.0000 C   0  0  0  0  0  0  0  0  0  0  0  0
   10.7942    3.4050    0.0000 C   0  0  0  0  0  0  0  0  0  0  0  0
   11.6603    1.9050    0.0000 C   0  0  0  0  0  0  0  0  0  0  0  0
   11.6603    2.9050    0.0000 C   0  0  0  0  0  0  0  0  0  0  0  0
   10.7942    4.4050    0.0000 C   0  0  0  0  0  0  0  0  0  0  0  0
   12.5263    1.4050    0.0000 C   0  0  0  0  0  0  0  0  0  0  0  0
    5.5981   -0.9750    0.0000 H   0  0  0  0  0  0  0  0  0  0  0  0
    5.8101   -3.1776    0.0000 H   0  0  0  0  0  0  0  0  0  0  0  0
    6.2087   -2.4873    0.0000 H   0  0  0  0  0  0  0  0  0  0  0  0
    5.1306   -0.6201    0.0000 H   0  0  0  0  0  0  0  0  0  0  0  0
    4.3335   -0.6201    0.0000 H   0  0  0  0  0  0  0  0  0  0  0  0
    3.8660   -3.2150    0.0000 H   0  0  0  0  0  0  0  0  0  0  0  0
    4.3335   -3.5700    0.0000 H   0  0  0  0  0  0  0  0  0  0  0  0
    5.1306   -3.5700    0.0000 H   0  0  0  0  0  0  0  0  0  0  0  0
    3.6540   -1.0124    0.0000 H   0  0  0  0  0  0  0  0  0  0  0  0
    3.2554   -1.7027    0.0000 H   0  0  0  0  0  0  0  0  0  0  0  0
    6.6762   -1.6776    0.0000 H   0  0  0  0  0  0  0  0  0  0  0  0
    7.0747   -0.9873    0.0000 H   0  0  0  0  0  0  0  0  0  0  0  0
    6.2520    0.4876    0.0000 H   0  0  0  0  0  0  0  0  0  0  0  0
    5.8535   -0.2027    0.0000 H   0  0  0  0  0  0  0  0  0  0  0  0
    7.7976   -0.5699    0.0000 H   0  0  0  0  0  0  0  0  0  0  0  0
    8.5947   -0.5699    0.0000 H   0  0  0  0  0  0  0  0  0  0  0  0
    7.1181    1.9876    0.0000 H   0  0  0  0  0  0  0  0  0  0  0  0
    6.7196    1.2973    0.0000 H   0  0  0  0  0  0  0  0  0  0  0  0
    2.4631   -2.7850    0.0000 H   0  0  0  0  0  0  0  0  0  0  0  0
    9.2742   -0.1776    0.0000 H   0  0  0  0  0  0  0  0  0  0  0  0
    9.6728    0.5127    0.0000 H   0  0  0  0  0  0  0  0  0  0  0  0
    8.5947    2.3800    0.0000 H   0  0  0  0  0  0  0  0  0  0  0  0
    7.7976    2.3800    0.0000 H   0  0  0  0  0  0  0  0  0  0  0  0
    9.3913    3.2150    0.0000 H   0  0  0  0  0  0  0  0  0  0  0  0
    2.4631   -5.4050    0.0000 H   0  0  0  0  0  0  0  0  0  0  0  0
    3.5369   -5.4050    0.0000 H   0  0  0  0  0  0  0  0  0  0  0  0
   10.7942    0.7850    0.0000 H   0  0  0  0  0  0  0  0  0  0  0  0
   12.1972    3.2150    0.0000 H   0  0  0  0  0  0  0  0  0  0  0  0
  1  5  2  0  0  0  0
  1  6  2  0  0  0  0
  1  8  1  0  0  0  0
  1 10  1  0  0  0  0
  2 30  1  0  0  0  0
  3 30  1  0  0  0  0
  4 30  1  0  0  0  0
  7 19  1  0  0  0  0
  7 20  1  0  0  0  0
  7 21  1  0  0  0  0
  8 15  1  0  0  0  0
  8 50  1  0  0  0  0
  9 22  1  0  0  0  0
  9 23  1  0  0  0  0
  9 24  1  0  0  0  0
 10 56  1  0  0  0  0
 10 57  1  0  0  0  0
 11 31  3  0  0  0  0
 12 13  1  0  0  0  0
 12 14  1  0  0  0  0
 12 18  1  0  0  0  0
 12 32  1  0  0  0  0
 13 16  1  0  0  0  0
 13 33  1  0  0  0  0
 13 34  1  0  0  0  0
 14 17  1  0  0  0  0
 14 35  1  0  0  0  0
 14 36  1  0  0  0  0
 15 16  1  0  0  0  0
 15 17  1  0  0  0  0
 15 37  1  0  0  0  0
 16 38  1  0  0  0  0
 16 39  1  0  0  0  0
 17 40  1  0  0  0  0
 17 41  1  0  0  0  0
 18 19  1  0  0  0  0
 18 42  1  0  0  0  0
 18 43  1  0  0  0  0
 19 44  1  0  0  0  0
 19 45  1  0  0  0  0
 20 22  1  0  0  0  0
 20 46  1  0  0  0  0
 20 47  1  0  0  0  0
 21 23  1  0  0  0  0
 21 48  1  0  0  0  0
 21 49  1  0  0  0  0
 22 51  1  0  0  0  0
 22 52  1  0  0  0  0
 23 53  1  0  0  0  0
 23 54  1  0  0  0  0
 24 25  1  0  0  0  0
 24 26  2  0  0  0  0
 25 27  2  0  0  0  0
 25 55  1  0  0  0  0
 26 28  1  0  0  0  0
 26 58  1  0  0  0  0
 27 29  1  0  0  0  0
 27 30  1  0  0  0  0
 28 29  2  0  0  0  0
 28 31  1  0  0  0  0
 29 59  1  0  0  0  0
M  END
> <PUBCHEM_COMPOUND_CID>
118714498

> <PUBCHEM_COMPOUND_CANONICALIZED>
1

> <PUBCHEM_CACTVS_COMPLEXITY>
732

> <PUBCHEM_CACTVS_HBOND_ACCEPTOR>
10

> <PUBCHEM_CACTVS_HBOND_DONOR>
2

> <PUBCHEM_CACTVS_ROTATABLE_BOND>
6

> <PUBCHEM_CACTVS_SUBSKEYS>
AAADceB7sYBAAAAAAAAAAAAAAAAAAAAAAAA8YIAAAAAAAAABAAAAHQAQQAAADSjBGBQwwINAAACQBiRCQDCiAAAhAgAAiIAIZIgI4CLAkZGUIAhgkADIyA8QgMAOAAACQAAAAAAQAASAAAAAAAAAAAAAAA==

> <PUBCHEM_IUPAC_OPENEYE_NAME>
1-[3-cyano-5-(trifluoromethyl)phenyl]-4-[2-[4-(sulfamoylamino)cyclohexyl]ethyl]piperazine

> <PUBCHEM_IUPAC_CAS_NAME>
1-[3-cyano-5-(trifluoromethyl)phenyl]-4-[2-[4-(sulfamoylamino)cyclohexyl]ethyl]piperazine

> <PUBCHEM_IUPAC_NAME_MARKUP>
1-[3-cyano-5-(trifluoromethyl)phenyl]-4-[2-[4-(sulfamoylamino)cyclohexyl]ethyl]piperazine

> <PUBCHEM_IUPAC_NAME>
1-[3-cyano-5-(trifluoromethyl)phenyl]-4-[2-[4-(sulfamoylamino)cyclohexyl]ethyl]piperazine

> <PUBCHEM_IUPAC_SYSTEMATIC_NAME>
1-[3-cyano-5-(trifluoromethyl)phenyl]-4-[2-[4-(sulfamoylamino)cyclohexyl]ethyl]piperazine

> <PUBCHEM_IUPAC_TRADITIONAL_NAME>
1-[3-cyano-5-(trifluoromethyl)phenyl]-4-[2-[4-(sulfamoylamino)cyclohexyl]ethyl]piperazine

> <PUBCHEM_IUPAC_INCHI>
InChI=1S/C20H28F3N5O2S/c21-20(22,23)17-11-16(14-24)12-19(13-17)28-9-7-27(8-10-28)6-5-15-1-3-18(4-2-15)26-31(25,29)30/h11-13,15,18,26H,1-10H2,(H2,25,29,30)

> <PUBCHEM_IUPAC_INCHIKEY>
WZWOJHTTXVCIBY-UHFFFAOYSA-N

> <PUBCHEM_XLOGP3_AA>
2.8

> <PUBCHEM_EXACT_MASS>
459.19158081

> <PUBCHEM_MOLECULAR_FORMULA>
C20H28F3N5O2S

> <PUBCHEM_MOLECULAR_WEIGHT>
459.5

> <PUBCHEM_OPENEYE_CAN_SMILES>
C1CC(CCC1CCN2CCN(CC2)C3=CC(=CC(=C3)C(F)(F)F)C#N)NS(=O)(=O)N

> <PUBCHEM_OPENEYE_ISO_SMILES>
C1CC(CCC1CCN2CCN(CC2)C3=CC(=CC(=C3)C(F)(F)F)C#N)NS(=O)(=O)N

> <PUBCHEM_CACTVS_TPSA>
111

> <PUBCHEM_MONOISOTOPIC_WEIGHT>
459.19158081

> <PUBCHEM_TOTAL_CHARGE>
0

> <PUBCHEM_HEAVY_ATOM_COUNT>
31

> <PUBCHEM_ATOM_DEF_STEREO_COUNT>
0

> <PUBCHEM_ATOM_UDEF_STEREO_COUNT>
0

> <PUBCHEM_BOND_DEF_STEREO_COUNT>
0

> <PUBCHEM_BOND_UDEF_STEREO_COUNT>
0

> <PUBCHEM_ISOTOPIC_ATOM_COUNT>
0

> <PUBCHEM_COMPONENT_COUNT>
1

> <PUBCHEM_CACTVS_TAUTO_COUNT>
-1

> <PUBCHEM_COORDINATE_TYPE>
1
5
255

> <PUBCHEM_BONDANNOTATIONS>
24  25  8
24  26  8
25  27  8
26  28  8
27  29  8
28  29  8

$$$$
