66801062
  -OEChem-09292322342D

 56 60  0     0  0  0  0  0  0999 V2000
    9.3653    1.8570    0.0000 S   0  0  0  0  0  0  0  0  0  0  0  0
    9.0923    3.6122    0.0000 S   0  0  0  0  0  0  0  0  0  0  0  0
    2.0000   -6.0633    0.0000 F   0  0  0  0  0  0  0  0  0  0  0  0
    5.5443   -5.8680    0.0000 O   0  0  0  0  0  0  0  0  0  0  0  0
   10.3158    1.5463    0.0000 O   0  0  0  0  0  0  0  0  0  0  0  0
    8.4148    2.1676    0.0000 O   0  0  0  0  0  0  0  0  0  0  0  0
    6.4763   -1.4070    0.0000 N   0  0  0  0  0  0  0  0  0  0  0  0
    6.1279   -5.0633    0.0000 N   0  0  0  0  0  0  0  0  0  0  0  0
    9.0546    0.9065    0.0000 N   0  0  0  0  0  0  0  0  0  0  0  0
    5.8550   -3.3081    0.0000 C   0  0  0  0  0  0  0  0  0  0  0  0
    5.1871   -2.5638    0.0000 C   0  0  0  0  0  0  0  0  0  0  0  0
    6.8335   -3.1018    0.0000 C   0  0  0  0  0  0  0  0  0  0  0  0
    5.4978   -1.6132    0.0000 C   0  0  0  0  0  0  0  0  0  0  0  0
    7.1441   -2.1513    0.0000 C   0  0  0  0  0  0  0  0  0  0  0  0
    6.7870   -0.4565    0.0000 C   0  0  0  0  0  0  0  0  0  0  0  0
    5.5443   -4.2586    0.0000 C   0  0  0  0  0  0  0  0  0  0  0  0
    7.7654   -0.2503    0.0000 C   0  0  0  0  0  0  0  0  0  0  0  0
    4.5981   -4.5633    0.0000 C   0  0  0  0  0  0  0  0  0  0  0  0
    8.0761    0.7002    0.0000 C   0  0  0  0  0  0  0  0  0  0  0  0
    4.5981   -5.5633    0.0000 C   0  0  0  0  0  0  0  0  0  0  0  0
    3.7320   -4.0633    0.0000 C   0  0  0  0  0  0  0  0  0  0  0  0
    3.7320   -6.0633    0.0000 C   0  0  0  0  0  0  0  0  0  0  0  0
    2.8660   -4.5633    0.0000 C   0  0  0  0  0  0  0  0  0  0  0  0
    2.8660   -5.5633    0.0000 C   0  0  0  0  0  0  0  0  0  0  0  0
    9.6759    2.8075    0.0000 C   0  0  0  0  0  0  0  0  0  0  0  0
   10.6222    3.1122    0.0000 C   0  0  0  0  0  0  0  0  0  0  0  0
   10.6265    4.1063    0.0000 C   0  0  0  0  0  0  0  0  0  0  0  0
    9.6759    4.4170    0.0000 C   0  0  0  0  0  0  0  0  0  0  0  0
   11.3708    4.7742    0.0000 C   0  0  0  0  0  0  0  0  0  0  0  0
    9.4697    5.3955    0.0000 C   0  0  0  0  0  0  0  0  0  0  0  0
   11.1645    5.7526    0.0000 C   0  0  0  0  0  0  0  0  0  0  0  0
   10.2140    6.0633    0.0000 C   0  0  0  0  0  0  0  0  0  0  0  0
    6.2690   -3.7695    0.0000 H   0  0  0  0  0  0  0  0  0  0  0  0
    4.6402   -2.2717    0.0000 H   0  0  0  0  0  0  0  0  0  0  0  0
    4.8046   -3.0517    0.0000 H   0  0  0  0  0  0  0  0  0  0  0  0
    6.8540   -3.7215    0.0000 H   0  0  0  0  0  0  0  0  0  0  0  0
    7.4473   -3.1892    0.0000 H   0  0  0  0  0  0  0  0  0  0  0  0
    5.4772   -0.9936    0.0000 H   0  0  0  0  0  0  0  0  0  0  0  0
    4.8840   -1.5259    0.0000 H   0  0  0  0  0  0  0  0  0  0  0  0
    7.6910   -2.4433    0.0000 H   0  0  0  0  0  0  0  0  0  0  0  0
    7.5267   -1.6634    0.0000 H   0  0  0  0  0  0  0  0  0  0  0  0
    6.7664    0.1632    0.0000 H   0  0  0  0  0  0  0  0  0  0  0  0
    6.1731   -0.3692    0.0000 H   0  0  0  0  0  0  0  0  0  0  0  0
    7.7860   -0.8699    0.0000 H   0  0  0  0  0  0  0  0  0  0  0  0
    8.3793   -0.3376    0.0000 H   0  0  0  0  0  0  0  0  0  0  0  0
    8.0556    1.3199    0.0000 H   0  0  0  0  0  0  0  0  0  0  0  0
    7.4623    0.7876    0.0000 H   0  0  0  0  0  0  0  0  0  0  0  0
    3.7320   -3.4433    0.0000 H   0  0  0  0  0  0  0  0  0  0  0  0
    9.4687    0.4450    0.0000 H   0  0  0  0  0  0  0  0  0  0  0  0
    3.7320   -6.6833    0.0000 H   0  0  0  0  0  0  0  0  0  0  0  0
    2.3291   -4.2533    0.0000 H   0  0  0  0  0  0  0  0  0  0  0  0
   11.1225    2.7461    0.0000 H   0  0  0  0  0  0  0  0  0  0  0  0
   11.9601    4.5815    0.0000 H   0  0  0  0  0  0  0  0  0  0  0  0
    8.8804    5.5881    0.0000 H   0  0  0  0  0  0  0  0  0  0  0  0
   11.6260    6.1667    0.0000 H   0  0  0  0  0  0  0  0  0  0  0  0
   10.0862    6.6700    0.0000 H   0  0  0  0  0  0  0  0  0  0  0  0
  1  5  2  0  0  0  0
  1  6  2  0  0  0  0
  1  9  1  0  0  0  0
  1 25  1  0  0  0  0
  2 25  1  0  0  0  0
  2 28  1  0  0  0  0
  3 24  1  0  0  0  0
  4  8  1  0  0  0  0
  4 20  1  0  0  0  0
  7 13  1  0  0  0  0
  7 14  1  0  0  0  0
  7 15  1  0  0  0  0
  8 16  2  0  0  0  0
  9 19  1  0  0  0  0
  9 49  1  0  0  0  0
 10 11  1  0  0  0  0
 10 12  1  0  0  0  0
 10 16  1  0  0  0  0
 10 33  1  0  0  0  0
 11 13  1  0  0  0  0
 11 34  1  0  0  0  0
 11 35  1  0  0  0  0
 12 14  1  0  0  0  0
 12 36  1  0  0  0  0
 12 37  1  0  0  0  0
 13 38  1  0  0  0  0
 13 39  1  0  0  0  0
 14 40  1  0  0  0  0
 14 41  1  0  0  0  0
 15 17  1  0  0  0  0
 15 42  1  0  0  0  0
 15 43  1  0  0  0  0
 16 18  1  0  0  0  0
 17 19  1  0  0  0  0
 17 44  1  0  0  0  0
 17 45  1  0  0  0  0
 18 20  2  0  0  0  0
 18 21  1  0  0  0  0
 19 46  1  0  0  0  0
 19 47  1  0  0  0  0
 20 22  1  0  0  0  0
 21 23  2  0  0  0  0
 21 48  1  0  0  0  0
 22 24  2  0  0  0  0
 22 50  1  0  0  0  0
 23 24  1  0  0  0  0
 23 51  1  0  0  0  0
 25 26  2  0  0  0  0
 26 27  1  0  0  0  0
 26 52  1  0  0  0  0
 27 28  1  0  0  0  0
 27 29  2  0  0  0  0
 28 30  2  0  0  0  0
 29 31  1  0  0  0  0
 29 53  1  0  0  0  0
 30 32  1  0  0  0  0
 30 54  1  0  0  0  0
 31 32  2  0  0  0  0
 31 55  1  0  0  0  0
 32 56  1  0  0  0  0
M  END
> <PUBCHEM_COMPOUND_CID>
66801062

> <PUBCHEM_COMPOUND_CANONICALIZED>
1

> <PUBCHEM_CACTVS_COMPLEXITY>
729

> <PUBCHEM_CACTVS_HBOND_ACCEPTOR>
8

> <PUBCHEM_CACTVS_HBOND_DONOR>
1

> <PUBCHEM_CACTVS_ROTATABLE_BOND>
7

> <PUBCHEM_CACTVS_SUBSKEYS>
AAADceB7MQBgAAAAAAAAAAAAAAAAAWJAAAA8YIAAAAAAAFgB/gAAHwQUQAAADQzB3gwwh9NQAAqtA6RyQnDDAZAkKBBomLk+TNoIJrqg1ZOEMYBm0BmoyceYyOCOAAAAAAAMAAAAAAAAABgAAAAAAAAAAA==

> <PUBCHEM_IUPAC_OPENEYE_NAME>
N-[3-[4-(6-fluoro-1,2-benzoxazol-3-yl)-1-piperidyl]propyl]benzothiophene-2-sulfonamide

> <PUBCHEM_IUPAC_CAS_NAME>
N-[3-[4-(6-fluoro-1,2-benzoxazol-3-yl)-1-piperidinyl]propyl]-1-benzothiophene-2-sulfonamide

> <PUBCHEM_IUPAC_NAME_MARKUP>
<I>N</I>-[3-[4-(6-fluoro-1,2-benzoxazol-3-yl)piperidin-1-yl]propyl]-1-benzothiophene-2-sulfonamide

> <PUBCHEM_IUPAC_NAME>
N-[3-[4-(6-fluoro-1,2-benzoxazol-3-yl)piperidin-1-yl]propyl]-1-benzothiophene-2-sulfonamide

> <PUBCHEM_IUPAC_SYSTEMATIC_NAME>
N-[3-[4-(6-fluoranyl-1,2-benzoxazol-3-yl)piperidin-1-yl]propyl]-1-benzothiophene-2-sulfonamide

> <PUBCHEM_IUPAC_TRADITIONAL_NAME>
N-[3-[4-(6-fluoroindoxazen-3-yl)piperidino]propyl]benzothiophene-2-sulfonamide

> <PUBCHEM_IUPAC_INCHI>
InChI=1S/C23H24FN3O3S2/c24-18-6-7-19-20(15-18)30-26-23(19)16-8-12-27(13-9-16)11-3-10-25-32(28,29)22-14-17-4-1-2-5-21(17)31-22/h1-2,4-7,14-16,25H,3,8-13H2

> <PUBCHEM_IUPAC_INCHIKEY>
SNDXGGDDBIUIIR-UHFFFAOYSA-N

> <PUBCHEM_XLOGP3_AA>
4.8

> <PUBCHEM_EXACT_MASS>
473.12431215

> <PUBCHEM_MOLECULAR_FORMULA>
C23H24FN3O3S2

> <PUBCHEM_MOLECULAR_WEIGHT>
473.6

> <PUBCHEM_OPENEYE_CAN_SMILES>
C1CN(CCC1C2=NOC3=C2C=CC(=C3)F)CCCNS(=O)(=O)C4=CC5=CC=CC=C5S4

> <PUBCHEM_OPENEYE_ISO_SMILES>
C1CN(CCC1C2=NOC3=C2C=CC(=C3)F)CCCNS(=O)(=O)C4=CC5=CC=CC=C5S4

> <PUBCHEM_CACTVS_TPSA>
112

> <PUBCHEM_MONOISOTOPIC_WEIGHT>
473.12431215

> <PUBCHEM_TOTAL_CHARGE>
0

> <PUBCHEM_HEAVY_ATOM_COUNT>
32

> <PUBCHEM_ATOM_DEF_STEREO_COUNT>
0

> <PUBCHEM_ATOM_UDEF_STEREO_COUNT>
0

> <PUBCHEM_BOND_DEF_STEREO_COUNT>
0

> <PUBCHEM_BOND_UDEF_STEREO_COUNT>
0

> <PUBCHEM_ISOTOPIC_ATOM_COUNT>
0

> <PUBCHEM_COMPONENT_COUNT>
1

> <PUBCHEM_CACTVS_TAUTO_COUNT>
-1

> <PUBCHEM_COORDINATE_TYPE>
1
5
255

> <PUBCHEM_BONDANNOTATIONS>
16  18  8
18  20  8
18  21  8
2  25  8
2  28  8
20  22  8
21  23  8
22  24  8
23  24  8
25  26  8
26  27  8
27  28  8
27  29  8
28  30  8
29  31  8
30  32  8
31  32  8
4  20  8
4  8  8
8  16  8

$$$$
