11573628
  -OEChem-09292322272D

 41 43  0     1  0  0  0  0  0999 V2000
    2.0000   -1.8544    0.0000 Cl  0  0  0  0  0  0  0  0  0  0  0  0
    3.7739   -2.8786    0.0000 O   0  0  0  0  0  0  0  0  0  0  0  0
    4.6520    2.6907    0.0000 N   0  0  3  0  0  0  0  0  0  0  0  0
    4.6520    1.6907    0.0000 C   0  0  0  0  0  0  0  0  0  0  0  0
    5.5180    3.1907    0.0000 C   0  0  0  0  0  0  0  0  0  0  0  0
    3.7860    1.1907    0.0000 C   0  0  0  0  0  0  0  0  0  0  0  0
    6.3840    2.6907    0.0000 C   0  0  0  0  0  0  0  0  0  0  0  0
    3.7860    0.1907    0.0000 C   0  0  0  0  0  0  0  0  0  0  0  0
    5.5180    0.1907    0.0000 C   0  0  0  0  0  0  0  0  0  0  0  0
    6.3840    1.6907    0.0000 C   0  0  0  0  0  0  0  0  0  0  0  0
    4.6520   -0.3093    0.0000 C   0  0  0  0  0  0  0  0  0  0  0  0
    5.5180    1.1907    0.0000 C   0  0  0  0  0  0  0  0  0  0  0  0
    3.7860    3.1907    0.0000 C   0  0  0  0  0  0  0  0  0  0  0  0
    2.8760   -0.3162    0.0000 C   0  0  0  0  0  0  0  0  0  0  0  0
    4.6681   -1.3509    0.0000 C   0  0  0  0  0  0  0  0  0  0  0  0
    7.7954    1.1135    0.0000 C   0  0  0  0  0  0  0  0  0  0  0  0
    5.3122   -0.3201    0.0000 C   0  0  0  0  0  0  0  0  0  0  0  0
    3.7700   -1.8786    0.0000 C   0  0  0  0  0  0  0  0  0  0  0  0
    2.8680   -1.3578    0.0000 C   0  0  0  0  0  0  0  0  0  0  0  0
    7.8985   -0.4077    0.0000 C   0  0  0  0  0  0  0  0  0  0  0  0
    6.5780   -1.1701    0.0000 C   0  0  0  0  0  0  0  0  0  0  0  0
    4.8641    1.1080    0.0000 H   0  0  0  0  0  0  0  0  0  0  0  0
    5.2626    1.7983    0.0000 H   0  0  0  0  0  0  0  0  0  0  0  0
    5.9166    3.6656    0.0000 H   0  0  0  0  0  0  0  0  0  0  0  0
    5.1195    3.6656    0.0000 H   0  0  0  0  0  0  0  0  0  0  0  0
    3.5739    1.7733    0.0000 H   0  0  0  0  0  0  0  0  0  0  0  0
    3.1754    1.0830    0.0000 H   0  0  0  0  0  0  0  0  0  0  0  0
    6.9946    2.5830    0.0000 H   0  0  0  0  0  0  0  0  0  0  0  0
    6.5961    3.2733    0.0000 H   0  0  0  0  0  0  0  0  0  0  0  0
    5.7301   -0.3919    0.0000 H   0  0  0  0  0  0  0  0  0  0  0  0
    6.1286    0.2983    0.0000 H   0  0  0  0  0  0  0  0  0  0  0  0
    4.0960    3.7276    0.0000 H   0  0  0  0  0  0  0  0  0  0  0  0
    3.2490    3.5007    0.0000 H   0  0  0  0  0  0  0  0  0  0  0  0
    3.4760    2.6537    0.0000 H   0  0  0  0  0  0  0  0  0  0  0  0
    2.3427    0.0000    0.0000 H   0  0  0  0  0  0  0  0  0  0  0  0
    5.2086   -1.6546    0.0000 H   0  0  0  0  0  0  0  0  0  0  0  0
    8.2981    1.4764    0.0000 H   0  0  0  0  0  0  0  0  0  0  0  0
    4.7466   -0.5741    0.0000 H   0  0  0  0  0  0  0  0  0  0  0  0
    8.4456   -0.6994    0.0000 H   0  0  0  0  0  0  0  0  0  0  0  0
    6.5571   -1.7898    0.0000 H   0  0  0  0  0  0  0  0  0  0  0  0
    3.2381   -3.1907    0.0000 H   0  0  0  0  0  0  0  0  0  0  0  0
  1 19  1  0  0  0  0
  2 18  1  0  0  0  0
  2 41  1  0  0  0  0
  3  4  1  0  0  0  0
  3  5  1  0  0  0  0
  3 13  1  0  0  0  0
  4  6  1  0  0  0  0
  4 22  1  0  0  0  0
  4 23  1  0  0  0  0
  5  7  1  0  0  0  0
  5 24  1  0  0  0  0
  5 25  1  0  0  0  0
  6  8  1  0  0  0  0
  6 26  1  0  0  0  0
  6 27  1  0  0  0  0
  7 10  1  0  0  0  0
  7 28  1  0  0  0  0
  7 29  1  0  0  0  0
  8 11  1  0  0  0  0
  8 14  2  0  0  0  0
  9 11  1  0  0  0  0
  9 12  1  0  0  0  0
  9 30  1  0  0  0  0
  9 31  1  0  0  0  0
 10 12  1  0  0  0  0
 10 16  2  0  0  0  0
 11 15  2  0  0  0  0
 12 17  2  0  0  0  0
 13 32  1  0  0  0  0
 13 33  1  0  0  0  0
 13 34  1  0  0  0  0
 14 19  1  0  0  0  0
 14 35  1  0  0  0  0
 15 18  1  0  0  0  0
 15 36  1  0  0  0  0
 16 20  1  0  0  0  0
 16 37  1  0  0  0  0
 17 21  1  0  0  0  0
 17 38  1  0  0  0  0
 18 19  2  0  0  0  0
 20 21  2  0  0  0  0
 20 39  1  0  0  0  0
 21 40  1  0  0  0  0
M  END
> <PUBCHEM_COMPOUND_CID>
11573628

> <PUBCHEM_COMPOUND_CANONICALIZED>
1

> <PUBCHEM_CACTVS_COMPLEXITY>
337

> <PUBCHEM_CACTVS_HBOND_ACCEPTOR>
2

> <PUBCHEM_CACTVS_HBOND_DONOR>
1

> <PUBCHEM_CACTVS_ROTATABLE_BOND>
0

> <PUBCHEM_CACTVS_SUBSKEYS>
AAADceB6IAAEAAAAAAAAAAAAAAAAAAAAAAAwYAAAAAAAAACxQAAAHgIACAAADAbBmCQyBoMAAgCAAiBCAAACAAAgJUAIiAAOC4gIJiKDkxOEcAAkwBGImAeQwPAOpAABIAAQCABIAAJAACAQAAAAAAAAAA==

> <PUBCHEM_IUPAC_OPENEYE_NAME>
6-chloro-11-methyl-11-azatricyclo[12.4.0.03,8]octadeca-1(18),3,5,7,14,16-hexaen-5-ol

> <PUBCHEM_IUPAC_CAS_NAME>
6-chloro-11-methyl-11-azatricyclo[12.4.0.03,8]octadeca-1(18),3,5,7,14,16-hexaen-5-ol

> <PUBCHEM_IUPAC_NAME_MARKUP>
6-chloro-11-methyl-11-azatricyclo[12.4.0.0<SUP>3,8</SUP>]octadeca-1(18),3,5,7,14,16-hexaen-5-ol

> <PUBCHEM_IUPAC_NAME>
6-chloro-11-methyl-11-azatricyclo[12.4.0.03,8]octadeca-1(18),3,5,7,14,16-hexaen-5-ol

> <PUBCHEM_IUPAC_SYSTEMATIC_NAME>
6-chloranyl-11-methyl-11-azatricyclo[12.4.0.03,8]octadeca-1(18),3,5,7,14,16-hexaen-5-ol

> <PUBCHEM_IUPAC_TRADITIONAL_NAME>
6-chloro-11-methyl-11-azatricyclo[12.4.0.03,8]octadeca-1(18),3,5,7,14,16-hexaen-5-ol

> <PUBCHEM_IUPAC_INCHI>
InChI=1S/C18H20ClNO/c1-20-8-6-13-4-2-3-5-14(13)10-16-12-18(21)17(19)11-15(16)7-9-20/h2-5,11-12,21H,6-10H2,1H3

> <PUBCHEM_IUPAC_INCHIKEY>
NVVFACNDFFNYNI-UHFFFAOYSA-N

> <PUBCHEM_XLOGP3_AA>
4.4

> <PUBCHEM_EXACT_MASS>
301.1233420

> <PUBCHEM_MOLECULAR_FORMULA>
C18H20ClNO

> <PUBCHEM_MOLECULAR_WEIGHT>
301.8

> <PUBCHEM_OPENEYE_CAN_SMILES>
CN1CCC2=CC=CC=C2CC3=CC(=C(C=C3CC1)Cl)O

> <PUBCHEM_OPENEYE_ISO_SMILES>
CN1CCC2=CC=CC=C2CC3=CC(=C(C=C3CC1)Cl)O

> <PUBCHEM_CACTVS_TPSA>
23.5

> <PUBCHEM_MONOISOTOPIC_WEIGHT>
301.1233420

> <PUBCHEM_TOTAL_CHARGE>
0

> <PUBCHEM_HEAVY_ATOM_COUNT>
21

> <PUBCHEM_ATOM_DEF_STEREO_COUNT>
0

> <PUBCHEM_ATOM_UDEF_STEREO_COUNT>
0

> <PUBCHEM_BOND_DEF_STEREO_COUNT>
0

> <PUBCHEM_BOND_UDEF_STEREO_COUNT>
0

> <PUBCHEM_ISOTOPIC_ATOM_COUNT>
0

> <PUBCHEM_COMPONENT_COUNT>
1

> <PUBCHEM_CACTVS_TAUTO_COUNT>
-1

> <PUBCHEM_COORDINATE_TYPE>
1
5
255

> <PUBCHEM_BONDANNOTATIONS>
10  12  8
10  16  8
11  15  8
12  17  8
14  19  8
15  18  8
16  20  8
17  21  8
18  19  8
20  21  8
8  11  8
8  14  8

$$$$
