90645306
  -OEChem-09292322082D

 67 70  0     0  0  0  0  0  0999 V2000
    2.0000    2.4897    0.0000 Cl  0  0  0  0  0  0  0  0  0  0  0  0
    5.5443    0.6850    0.0000 S   0  0  0  0  0  0  0  0  0  0  0  0
   14.6279   -2.8404    0.0000 O   0  0  0  0  0  0  0  0  0  0  0  0
    7.6279    2.3557    0.0000 O   0  0  0  0  0  0  0  0  0  0  0  0
    2.0000    0.4897    0.0000 O   0  0  0  0  0  0  0  0  0  0  0  0
   11.6279   -1.1084    0.0000 N   0  0  0  0  0  0  0  0  0  0  0  0
   13.6279   -1.1084    0.0000 N   0  0  0  0  0  0  0  0  0  0  0  0
    7.6279    0.6237    0.0000 N   0  0  0  0  0  0  0  0  0  0  0  0
    5.8550    3.2450    0.0000 N   0  0  0  0  0  0  0  0  0  0  0  0
    3.7320    0.4897    0.0000 N   0  0  0  0  0  0  0  0  0  0  0  0
   12.1279   -1.9744    0.0000 C   0  0  0  0  0  0  0  0  0  0  0  0
   12.1279   -0.2423    0.0000 C   0  0  0  0  0  0  0  0  0  0  0  0
   13.1279   -1.9744    0.0000 C   0  0  0  0  0  0  0  0  0  0  0  0
   13.1279   -0.2423    0.0000 C   0  0  0  0  0  0  0  0  0  0  0  0
   10.6279   -1.1084    0.0000 C   0  0  0  0  0  0  0  0  0  0  0  0
   10.1279   -0.2423    0.0000 C   0  0  0  0  0  0  0  0  0  0  0  0
   14.6279   -1.1084    0.0000 C   0  0  0  0  0  0  0  0  0  0  0  0
    9.1279   -0.2423    0.0000 C   0  0  0  0  0  0  0  0  0  0  0  0
    8.6279    0.6237    0.0000 C   0  0  0  0  0  0  0  0  0  0  0  0
   15.1279   -1.9744    0.0000 C   0  0  0  0  0  0  0  0  0  0  0  0
   15.1279   -0.2423    0.0000 C   0  0  0  0  0  0  0  0  0  0  0  0
   16.1279   -1.9744    0.0000 C   0  0  0  0  0  0  0  0  0  0  0  0
   16.1279   -0.2423    0.0000 C   0  0  0  0  0  0  0  0  0  0  0  0
   16.6279   -1.1084    0.0000 C   0  0  0  0  0  0  0  0  0  0  0  0
    7.1279    1.4897    0.0000 C   0  0  0  0  0  0  0  0  0  0  0  0
    6.1279    1.4897    0.0000 C   0  0  0  0  0  0  0  0  0  0  0  0
    5.5443    2.2944    0.0000 C   0  0  0  0  0  0  0  0  0  0  0  0
    4.5981    1.9897    0.0000 C   0  0  0  0  0  0  0  0  0  0  0  0
    4.5981    0.9897    0.0000 C   0  0  0  0  0  0  0  0  0  0  0  0
   15.1279   -3.7064    0.0000 C   0  0  0  0  0  0  0  0  0  0  0  0
    3.7320    2.4897    0.0000 C   0  0  0  0  0  0  0  0  0  0  0  0
    2.8660    1.9897    0.0000 C   0  0  0  0  0  0  0  0  0  0  0  0
    3.7320    3.4897    0.0000 C   0  0  0  0  0  0  0  0  0  0  0  0
    2.8660    0.9897    0.0000 C   0  0  0  0  0  0  0  0  0  0  0  0
    2.0000   -0.5103    0.0000 C   0  0  0  0  0  0  0  0  0  0  0  0
   11.5453   -2.1864    0.0000 H   0  0  0  0  0  0  0  0  0  0  0  0
   12.2356   -2.5850    0.0000 H   0  0  0  0  0  0  0  0  0  0  0  0
   12.2356    0.3682    0.0000 H   0  0  0  0  0  0  0  0  0  0  0  0
   11.5453   -0.0303    0.0000 H   0  0  0  0  0  0  0  0  0  0  0  0
   13.0202   -2.5850    0.0000 H   0  0  0  0  0  0  0  0  0  0  0  0
   13.7105   -2.1864    0.0000 H   0  0  0  0  0  0  0  0  0  0  0  0
   13.7105   -0.0303    0.0000 H   0  0  0  0  0  0  0  0  0  0  0  0
   13.0202    0.3682    0.0000 H   0  0  0  0  0  0  0  0  0  0  0  0
   10.0453   -1.3204    0.0000 H   0  0  0  0  0  0  0  0  0  0  0  0
   10.7356   -1.7189    0.0000 H   0  0  0  0  0  0  0  0  0  0  0  0
   10.7105   -0.0303    0.0000 H   0  0  0  0  0  0  0  0  0  0  0  0
   10.0202    0.3682    0.0000 H   0  0  0  0  0  0  0  0  0  0  0  0
    8.5453   -0.4544    0.0000 H   0  0  0  0  0  0  0  0  0  0  0  0
    9.2356   -0.8529    0.0000 H   0  0  0  0  0  0  0  0  0  0  0  0
    9.2105    0.8357    0.0000 H   0  0  0  0  0  0  0  0  0  0  0  0
    8.5202    1.2343    0.0000 H   0  0  0  0  0  0  0  0  0  0  0  0
   14.8179    0.2946    0.0000 H   0  0  0  0  0  0  0  0  0  0  0  0
    7.3179    0.0868    0.0000 H   0  0  0  0  0  0  0  0  0  0  0  0
   16.4379   -2.5113    0.0000 H   0  0  0  0  0  0  0  0  0  0  0  0
   16.4379    0.2946    0.0000 H   0  0  0  0  0  0  0  0  0  0  0  0
   17.2479   -1.1084    0.0000 H   0  0  0  0  0  0  0  0  0  0  0  0
   14.5910   -4.0164    0.0000 H   0  0  0  0  0  0  0  0  0  0  0  0
   15.4379   -4.2434    0.0000 H   0  0  0  0  0  0  0  0  0  0  0  0
   15.6648   -3.3964    0.0000 H   0  0  0  0  0  0  0  0  0  0  0  0
    4.3520    3.4897    0.0000 H   0  0  0  0  0  0  0  0  0  0  0  0
    3.7320    4.1097    0.0000 H   0  0  0  0  0  0  0  0  0  0  0  0
    3.1120    3.4897    0.0000 H   0  0  0  0  0  0  0  0  0  0  0  0
    6.4616    3.3728    0.0000 H   0  0  0  0  0  0  0  0  0  0  0  0
    5.4409    3.7064    0.0000 H   0  0  0  0  0  0  0  0  0  0  0  0
    1.3800   -0.5103    0.0000 H   0  0  0  0  0  0  0  0  0  0  0  0
    2.0000   -1.1303    0.0000 H   0  0  0  0  0  0  0  0  0  0  0  0
    2.6200   -0.5103    0.0000 H   0  0  0  0  0  0  0  0  0  0  0  0
  1 32  1  0  0  0  0
  2 26  1  0  0  0  0
  2 29  1  0  0  0  0
  3 20  1  0  0  0  0
  3 30  1  0  0  0  0
  4 25  2  0  0  0  0
  5 34  1  0  0  0  0
  5 35  1  0  0  0  0
  6 11  1  0  0  0  0
  6 12  1  0  0  0  0
  6 15  1  0  0  0  0
  7 13  1  0  0  0  0
  7 14  1  0  0  0  0
  7 17  1  0  0  0  0
  8 19  1  0  0  0  0
  8 25  1  0  0  0  0
  8 53  1  0  0  0  0
  9 27  1  0  0  0  0
  9 63  1  0  0  0  0
  9 64  1  0  0  0  0
 10 29  2  0  0  0  0
 10 34  1  0  0  0  0
 11 13  1  0  0  0  0
 11 36  1  0  0  0  0
 11 37  1  0  0  0  0
 12 14  1  0  0  0  0
 12 38  1  0  0  0  0
 12 39  1  0  0  0  0
 13 40  1  0  0  0  0
 13 41  1  0  0  0  0
 14 42  1  0  0  0  0
 14 43  1  0  0  0  0
 15 16  1  0  0  0  0
 15 44  1  0  0  0  0
 15 45  1  0  0  0  0
 16 18  1  0  0  0  0
 16 46  1  0  0  0  0
 16 47  1  0  0  0  0
 17 20  1  0  0  0  0
 17 21  2  0  0  0  0
 18 19  1  0  0  0  0
 18 48  1  0  0  0  0
 18 49  1  0  0  0  0
 19 50  1  0  0  0  0
 19 51  1  0  0  0  0
 20 22  2  0  0  0  0
 21 23  1  0  0  0  0
 21 52  1  0  0  0  0
 22 24  1  0  0  0  0
 22 54  1  0  0  0  0
 23 24  2  0  0  0  0
 23 55  1  0  0  0  0
 24 56  1  0  0  0  0
 25 26  1  0  0  0  0
 26 27  2  0  0  0  0
 27 28  1  0  0  0  0
 28 29  1  0  0  0  0
 28 31  2  0  0  0  0
 30 57  1  0  0  0  0
 30 58  1  0  0  0  0
 30 59  1  0  0  0  0
 31 32  1  0  0  0  0
 31 33  1  0  0  0  0
 32 34  2  0  0  0  0
 33 60  1  0  0  0  0
 33 61  1  0  0  0  0
 33 62  1  0  0  0  0
 35 65  1  0  0  0  0
 35 66  1  0  0  0  0
 35 67  1  0  0  0  0
M  END
> <PUBCHEM_COMPOUND_CID>
90645306

> <PUBCHEM_COMPOUND_CANONICALIZED>
1

> <PUBCHEM_CACTVS_COMPLEXITY>
686

> <PUBCHEM_CACTVS_HBOND_ACCEPTOR>
8

> <PUBCHEM_CACTVS_HBOND_DONOR>
2

> <PUBCHEM_CACTVS_ROTATABLE_BOND>
9

> <PUBCHEM_CACTVS_SUBSKEYS>
AAADcfB7sABEAAAAAAAAAAAAAAAAASAAAAA8WIAAAAAAAFgB/AAAHgYQAAAADA7B2iYyx9PIFAisAiVyVACD2KBlLngImLUvb9gOZnvl99vVNaxk1hH46UeY2SGOgAAAAAAAEAAAAAAAAAAgAAAAAAAAAA==

> <PUBCHEM_IUPAC_OPENEYE_NAME>
3-amino-5-chloro-6-methoxy-N-[4-[4-(2-methoxyphenyl)piperazin-1-yl]butyl]-4-methyl-thieno[2,3-b]pyridine-2-carboxamide

> <PUBCHEM_IUPAC_CAS_NAME>
3-amino-5-chloro-6-methoxy-N-[4-[4-(2-methoxyphenyl)-1-piperazinyl]butyl]-4-methyl-2-thieno[2,3-b]pyridinecarboxamide

> <PUBCHEM_IUPAC_NAME_MARKUP>
3-amino-5-chloro-6-methoxy-<I>N</I>-[4-[4-(2-methoxyphenyl)piperazin-1-yl]butyl]-4-methylthieno[2,3-b]pyridine-2-carboxamide

> <PUBCHEM_IUPAC_NAME>
3-amino-5-chloro-6-methoxy-N-[4-[4-(2-methoxyphenyl)piperazin-1-yl]butyl]-4-methylthieno[2,3-b]pyridine-2-carboxamide

> <PUBCHEM_IUPAC_SYSTEMATIC_NAME>
3-azanyl-5-chloranyl-6-methoxy-N-[4-[4-(2-methoxyphenyl)piperazin-1-yl]butyl]-4-methyl-thieno[2,3-b]pyridine-2-carboxamide

> <PUBCHEM_IUPAC_TRADITIONAL_NAME>
3-amino-5-chloro-6-methoxy-N-[4-[4-(2-methoxyphenyl)piperazino]butyl]-4-methyl-thieno[2,3-b]pyridine-2-carboxamide

> <PUBCHEM_IUPAC_INCHI>
InChI=1S/C25H32ClN5O3S/c1-16-19-21(27)22(35-25(19)29-24(34-3)20(16)26)23(32)28-10-6-7-11-30-12-14-31(15-13-30)17-8-4-5-9-18(17)33-2/h4-5,8-9H,6-7,10-15,27H2,1-3H3,(H,28,32)

> <PUBCHEM_IUPAC_INCHIKEY>
RULOOZJTFYDVKV-UHFFFAOYSA-N

> <PUBCHEM_XLOGP3_AA>
5.3

> <PUBCHEM_EXACT_MASS>
517.1914388

> <PUBCHEM_MOLECULAR_FORMULA>
C25H32ClN5O3S

> <PUBCHEM_MOLECULAR_WEIGHT>
518.1

> <PUBCHEM_OPENEYE_CAN_SMILES>
CC1=C2C(=C(SC2=NC(=C1Cl)OC)C(=O)NCCCCN3CCN(CC3)C4=CC=CC=C4OC)N

> <PUBCHEM_OPENEYE_ISO_SMILES>
CC1=C2C(=C(SC2=NC(=C1Cl)OC)C(=O)NCCCCN3CCN(CC3)C4=CC=CC=C4OC)N

> <PUBCHEM_CACTVS_TPSA>
121

> <PUBCHEM_MONOISOTOPIC_WEIGHT>
517.1914388

> <PUBCHEM_TOTAL_CHARGE>
0

> <PUBCHEM_HEAVY_ATOM_COUNT>
35

> <PUBCHEM_ATOM_DEF_STEREO_COUNT>
0

> <PUBCHEM_ATOM_UDEF_STEREO_COUNT>
0

> <PUBCHEM_BOND_DEF_STEREO_COUNT>
0

> <PUBCHEM_BOND_UDEF_STEREO_COUNT>
0

> <PUBCHEM_ISOTOPIC_ATOM_COUNT>
0

> <PUBCHEM_COMPONENT_COUNT>
1

> <PUBCHEM_CACTVS_TAUTO_COUNT>
-1

> <PUBCHEM_COORDINATE_TYPE>
1
5
255

> <PUBCHEM_BONDANNOTATIONS>
10  29  8
10  34  8
17  20  8
17  21  8
2  26  8
2  29  8
20  22  8
21  23  8
22  24  8
23  24  8
26  27  8
27  28  8
28  29  8
28  31  8
31  32  8
32  34  8

$$$$
