45487336
  -OEChem-09292322482D

 68 73  0     1  0  0  0  0  0999 V2000
    8.2062    0.4409    0.0000 S   0  0  0  0  0  0  0  0  0  0  0  0
    3.4887   -5.8755    0.0000 O   0  0  0  0  0  0  0  0  0  0  0  0
    5.2062   -1.2912    0.0000 N   0  0  3  0  0  0  0  0  0  0  0  0
    2.0949   -5.0707    0.0000 N   0  0  0  0  0  0  0  0  0  0  0  0
    9.7008    1.4114    0.0000 N   0  0  0  0  0  0  0  0  0  0  0  0
    8.2995    2.2204    0.0000 N   0  0  0  0  0  0  0  0  0  0  0  0
    9.0426    2.8896    0.0000 N   0  0  0  0  0  0  0  0  0  0  0  0
   11.9651    5.2317    0.0000 N   0  0  0  0  0  0  0  0  0  0  0  0
    4.5640   -3.4036    0.0000 C   0  0  0  0  0  0  0  0  0  0  0  0
    3.6979   -2.9036    0.0000 C   0  0  0  0  0  0  0  0  0  0  0  0
    3.6979   -4.9036    0.0000 C   0  0  3  0  0  0  0  0  0  0  0  0
    2.8319   -4.4036    0.0000 C   0  0  3  0  0  0  0  0  0  0  0  0
    5.4745   -3.0392    0.0000 C   0  0  0  0  0  0  0  0  0  0  0  0
    3.5583   -1.9328    0.0000 C   0  0  0  0  0  0  0  0  0  0  0  0
    5.7598   -2.1008    0.0000 C   0  0  0  0  0  0  0  0  0  0  0  0
    4.2283   -1.2166    0.0000 C   0  0  0  0  0  0  0  0  0  0  0  0
    4.5640   -4.4036    0.0000 C   0  0  0  0  0  0  0  0  0  0  0  0
    2.8319   -3.4036    0.0000 C   0  0  0  0  0  0  0  0  0  0  0  0
    5.7062   -0.4252    0.0000 C   0  0  0  0  0  0  0  0  0  0  0  0
    6.7062   -0.4252    0.0000 C   0  0  0  0  0  0  0  0  0  0  0  0
    2.5000   -5.9785    0.0000 C   0  0  0  0  0  0  0  0  0  0  0  0
    7.2062    0.4409    0.0000 C   0  0  0  0  0  0  0  0  0  0  0  0
    2.0000   -6.8445    0.0000 C   0  0  0  0  0  0  0  0  0  0  0  0
    8.7062    1.3069    0.0000 C   0  0  0  0  0  0  0  0  0  0  0  0
    9.9087    2.3896    0.0000 C   0  0  0  0  0  0  0  0  0  0  0  0
   10.8222    2.7963    0.0000 C   0  0  0  0  0  0  0  0  0  0  0  0
   10.9267    3.7908    0.0000 C   0  0  0  0  0  0  0  0  0  0  0  0
   10.3699    0.6683    0.0000 C   0  0  0  0  0  0  0  0  0  0  0  0
   11.8403    4.1976    0.0000 C   0  0  0  0  0  0  0  0  0  0  0  0
   11.6312    2.2085    0.0000 C   0  0  0  0  0  0  0  0  0  0  0  0
   10.0747    4.3900    0.0000 C   0  0  0  0  0  0  0  0  0  0  0  0
   12.6493    3.6098    0.0000 C   0  0  0  0  0  0  0  0  0  0  0  0
   12.5448    2.6153    0.0000 C   0  0  0  0  0  0  0  0  0  0  0  0
   10.1756    5.4268    0.0000 C   0  0  0  0  0  0  0  0  0  0  0  0
   11.1272    5.8504    0.0000 C   0  0  0  0  0  0  0  0  0  0  0  0
   11.2355    6.8445    0.0000 C   0  0  0  0  0  0  0  0  0  0  0  0
    4.1990   -5.2687    0.0000 H   0  0  0  0  0  0  0  0  0  0  0  0
    2.2652   -4.1522    0.0000 H   0  0  0  0  0  0  0  0  0  0  0  0
    5.5705   -3.6517    0.0000 H   0  0  0  0  0  0  0  0  0  0  0  0
    6.0930   -3.0825    0.0000 H   0  0  0  0  0  0  0  0  0  0  0  0
    3.2116   -1.4189    0.0000 H   0  0  0  0  0  0  0  0  0  0  0  0
    2.9798   -2.1560    0.0000 H   0  0  0  0  0  0  0  0  0  0  0  0
    6.2977   -2.4091    0.0000 H   0  0  0  0  0  0  0  0  0  0  0  0
    6.1805   -1.6454    0.0000 H   0  0  0  0  0  0  0  0  0  0  0  0
    4.4124   -0.6245    0.0000 H   0  0  0  0  0  0  0  0  0  0  0  0
    3.6923   -0.9049    0.0000 H   0  0  0  0  0  0  0  0  0  0  0  0
    5.1009   -4.7136    0.0000 H   0  0  0  0  0  0  0  0  0  0  0  0
    2.2950   -3.0936    0.0000 H   0  0  0  0  0  0  0  0  0  0  0  0
    5.8139    0.1854    0.0000 H   0  0  0  0  0  0  0  0  0  0  0  0
    5.1236   -0.2131    0.0000 H   0  0  0  0  0  0  0  0  0  0  0  0
    6.5986   -1.0357    0.0000 H   0  0  0  0  0  0  0  0  0  0  0  0
    7.2888   -0.6372    0.0000 H   0  0  0  0  0  0  0  0  0  0  0  0
    7.3139    1.0514    0.0000 H   0  0  0  0  0  0  0  0  0  0  0  0
    6.6236    0.6529    0.0000 H   0  0  0  0  0  0  0  0  0  0  0  0
    1.4631   -6.5345    0.0000 H   0  0  0  0  0  0  0  0  0  0  0  0
    1.6900   -7.3815    0.0000 H   0  0  0  0  0  0  0  0  0  0  0  0
    2.5369   -7.1545    0.0000 H   0  0  0  0  0  0  0  0  0  0  0  0
    9.9091    0.2534    0.0000 H   0  0  0  0  0  0  0  0  0  0  0  0
   10.7847    0.2075    0.0000 H   0  0  0  0  0  0  0  0  0  0  0  0
   10.8306    1.0831    0.0000 H   0  0  0  0  0  0  0  0  0  0  0  0
   11.5664    1.5919    0.0000 H   0  0  0  0  0  0  0  0  0  0  0  0
    9.5113    4.1313    0.0000 H   0  0  0  0  0  0  0  0  0  0  0  0
   13.2157    3.8620    0.0000 H   0  0  0  0  0  0  0  0  0  0  0  0
   13.0464    2.2508    0.0000 H   0  0  0  0  0  0  0  0  0  0  0  0
    9.6726    5.7892    0.0000 H   0  0  0  0  0  0  0  0  0  0  0  0
   11.8519    6.7774    0.0000 H   0  0  0  0  0  0  0  0  0  0  0  0
   11.3027    7.4609    0.0000 H   0  0  0  0  0  0  0  0  0  0  0  0
   10.6192    6.9117    0.0000 H   0  0  0  0  0  0  0  0  0  0  0  0
  1 22  1  0  0  0  0
  1 24  1  0  0  0  0
  2 11  1  0  0  0  0
  2 21  1  0  0  0  0
  3 15  1  0  0  0  0
  3 16  1  0  0  0  0
  3 19  1  0  0  0  0
  4 12  1  0  0  0  0
  4 21  2  0  0  0  0
  5 24  1  0  0  0  0
  5 25  1  0  0  0  0
  5 28  1  0  0  0  0
  6  7  1  0  0  0  0
  6 24  2  0  0  0  0
  7 25  2  0  0  0  0
  8 29  1  0  0  0  0
  8 35  2  0  0  0  0
  9 10  1  0  0  0  0
  9 13  1  0  0  0  0
  9 17  2  0  0  0  0
 10 14  1  0  0  0  0
 10 18  2  0  0  0  0
 11 12  1  0  0  0  0
 11 17  1  0  0  0  0
 11 37  1  0  0  0  0
 12 18  1  0  0  0  0
 12 38  1  0  0  0  0
 13 15  1  0  0  0  0
 13 39  1  0  0  0  0
 13 40  1  0  0  0  0
 14 16  1  0  0  0  0
 14 41  1  0  0  0  0
 14 42  1  0  0  0  0
 15 43  1  0  0  0  0
 15 44  1  0  0  0  0
 16 45  1  0  0  0  0
 16 46  1  0  0  0  0
 17 47  1  0  0  0  0
 18 48  1  0  0  0  0
 19 20  1  0  0  0  0
 19 49  1  0  0  0  0
 19 50  1  0  0  0  0
 20 22  1  0  0  0  0
 20 51  1  0  0  0  0
 20 52  1  0  0  0  0
 21 23  1  0  0  0  0
 22 53  1  0  0  0  0
 22 54  1  0  0  0  0
 23 55  1  0  0  0  0
 23 56  1  0  0  0  0
 23 57  1  0  0  0  0
 25 26  1  0  0  0  0
 26 27  2  0  0  0  0
 26 30  1  0  0  0  0
 27 29  1  0  0  0  0
 27 31  1  0  0  0  0
 28 58  1  0  0  0  0
 28 59  1  0  0  0  0
 28 60  1  0  0  0  0
 29 32  2  0  0  0  0
 30 33  2  0  0  0  0
 30 61  1  0  0  0  0
 31 34  2  0  0  0  0
 31 62  1  0  0  0  0
 32 33  1  0  0  0  0
 32 63  1  0  0  0  0
 33 64  1  0  0  0  0
 34 35  1  0  0  0  0
 34 65  1  0  0  0  0
 35 36  1  0  0  0  0
 36 66  1  0  0  0  0
 36 67  1  0  0  0  0
 36 68  1  0  0  0  0
M  END
> <PUBCHEM_COMPOUND_CID>
45487336

> <PUBCHEM_COMPOUND_CANONICALIZED>
1

> <PUBCHEM_CACTVS_COMPLEXITY>
891

> <PUBCHEM_CACTVS_HBOND_ACCEPTOR>
7

> <PUBCHEM_CACTVS_HBOND_DONOR>
0

> <PUBCHEM_CACTVS_ROTATABLE_BOND>
6

> <PUBCHEM_CACTVS_SUBSKEYS>
AAADcfB7oABAAAAAAAAAAAAAAAAAAWIAAAA8QIAABYAAAECx/AAAHgQIAAAADDzl3waz0PcMFAiiAyZiZACS0CthArAd2CA4ZJiKLOLguZGHMAhgyALI6AcQgMAOgAAAQAASAAAAAACAACQAAAAAAAAAAA==

> <PUBCHEM_IUPAC_OPENEYE_NAME>
2-methyl-7-[3-[[4-methyl-5-(2-methyl-5-quinolyl)-1,2,4-triazol-3-yl]sulfanyl]propyl]-3a,5,6,8,9,10a-hexahydrooxazolo[4,5-h][3]benzazepine

> <PUBCHEM_IUPAC_CAS_NAME>
2-methyl-7-[3-[[4-methyl-5-(2-methyl-5-quinolinyl)-1,2,4-triazol-3-yl]thio]propyl]-3a,5,6,8,9,10a-hexahydrooxazolo[4,5-h][3]benzazepine

> <PUBCHEM_IUPAC_NAME_MARKUP>
2-methyl-7-[3-[[4-methyl-5-(2-methylquinolin-5-yl)-1,2,4-triazol-3-yl]sulfanyl]propyl]-3<I>a</I>,5,6,8,9,10<I>a</I>-hexahydro-[1,3]oxazolo[4,5-h][3]benzazepine

> <PUBCHEM_IUPAC_NAME>
2-methyl-7-[3-[[4-methyl-5-(2-methylquinolin-5-yl)-1,2,4-triazol-3-yl]sulfanyl]propyl]-3a,5,6,8,9,10a-hexahydro-[1,3]oxazolo[4,5-h][3]benzazepine

> <PUBCHEM_IUPAC_SYSTEMATIC_NAME>
2-methyl-7-[3-[[4-methyl-5-(2-methylquinolin-5-yl)-1,2,4-triazol-3-yl]sulfanyl]propyl]-3a,5,6,8,9,10a-hexahydro-[1,3]oxazolo[4,5-h][3]benzazepine

> <PUBCHEM_IUPAC_TRADITIONAL_NAME>
2-methyl-7-[3-[[4-methyl-5-(2-methyl-5-quinolyl)-1,2,4-triazol-3-yl]thio]propyl]-3a,5,6,8,9,10a-hexahydrooxazolo[4,5-h][3]benzazepine

> <PUBCHEM_IUPAC_INCHI>
InChI=1S/C28H32N6OS/c1-18-8-9-22-23(6-4-7-24(22)29-18)27-31-32-28(33(27)3)36-15-5-12-34-13-10-20-16-25-26(35-19(2)30-25)17-21(20)11-14-34/h4,6-9,16-17,25-26H,5,10-15H2,1-3H3

> <PUBCHEM_IUPAC_INCHIKEY>
UWMNNXYMOFTXGP-UHFFFAOYSA-N

> <PUBCHEM_XLOGP3_AA>
3.2

> <PUBCHEM_EXACT_MASS>
500.23583084

> <PUBCHEM_MOLECULAR_FORMULA>
C28H32N6OS

> <PUBCHEM_MOLECULAR_WEIGHT>
500.7

> <PUBCHEM_OPENEYE_CAN_SMILES>
CC1=NC2=CC=CC(=C2C=C1)C3=NN=C(N3C)SCCCN4CCC5=CC6C(C=C5CC4)OC(=N6)C

> <PUBCHEM_OPENEYE_ISO_SMILES>
CC1=NC2=CC=CC(=C2C=C1)C3=NN=C(N3C)SCCCN4CCC5=CC6C(C=C5CC4)OC(=N6)C

> <PUBCHEM_CACTVS_TPSA>
93.7

> <PUBCHEM_MONOISOTOPIC_WEIGHT>
500.23583084

> <PUBCHEM_TOTAL_CHARGE>
0

> <PUBCHEM_HEAVY_ATOM_COUNT>
36

> <PUBCHEM_ATOM_DEF_STEREO_COUNT>
0

> <PUBCHEM_ATOM_UDEF_STEREO_COUNT>
2

> <PUBCHEM_BOND_DEF_STEREO_COUNT>
0

> <PUBCHEM_BOND_UDEF_STEREO_COUNT>
0

> <PUBCHEM_ISOTOPIC_ATOM_COUNT>
0

> <PUBCHEM_COMPONENT_COUNT>
1

> <PUBCHEM_CACTVS_TAUTO_COUNT>
-1

> <PUBCHEM_COORDINATE_TYPE>
1
5
255

> <PUBCHEM_BONDANNOTATIONS>
11  17  3
12  18  3
26  27  8
26  30  8
27  29  8
27  31  8
29  32  8
30  33  8
31  34  8
32  33  8
34  35  8
5  24  8
5  25  8
6  24  8
6  7  8
7  25  8
8  29  8
8  35  8

$$$$
