71453282
  -OEChem-09292322332D

 53 56  0     1  0  0  0  0  0999 V2000
    2.8090   -3.9444    0.0000 Cl  0  0  0  0  0  0  0  0  0  0  0  0
    3.8968   -0.5965    0.0000 S   0  0  0  0  0  0  0  0  0  0  0  0
    3.6180   -2.3566    0.0000 S   0  0  0  0  0  0  0  0  0  0  0  0
    9.6599    0.9444    0.0000 O   0  0  0  0  0  0  0  0  0  0  0  0
    3.0878   -0.0087    0.0000 O   0  0  0  0  0  0  0  0  0  0  0  0
    4.7058   -1.1843    0.0000 O   0  0  0  0  0  0  0  0  0  0  0  0
    7.0618    0.4444    0.0000 N   0  0  3  0  0  0  0  0  0  0  0  0
    4.4846    0.2125    0.0000 N   0  0  0  0  0  0  0  0  0  0  0  0
    5.4791    0.1080    0.0000 C   0  0  1  0  0  0  0  0  0  0  0  0
    5.9791   -0.7581    0.0000 C   0  0  0  0  0  0  0  0  0  0  0  0
    6.1482    0.8511    0.0000 C   0  0  0  0  0  0  0  0  0  0  0  0
    6.9573   -0.5501    0.0000 C   0  0  0  0  0  0  0  0  0  0  0  0
    7.9278    0.9444    0.0000 C   0  0  0  0  0  0  0  0  0  0  0  0
    8.7938    0.4444    0.0000 C   0  0  0  0  0  0  0  0  0  0  0  0
    3.3090   -1.4055    0.0000 C   0  0  0  0  0  0  0  0  0  0  0  0
   10.5259    0.4444    0.0000 C   0  0  0  0  0  0  0  0  0  0  0  0
    2.3090   -1.4055    0.0000 C   0  0  0  0  0  0  0  0  0  0  0  0
   11.3919    0.9444    0.0000 C   0  0  0  0  0  0  0  0  0  0  0  0
    2.0000   -2.3566    0.0000 C   0  0  0  0  0  0  0  0  0  0  0  0
    2.8090   -2.9444    0.0000 C   0  0  0  0  0  0  0  0  0  0  0  0
   10.5259   -0.5556    0.0000 C   0  0  0  0  0  0  0  0  0  0  0  0
   11.3919    1.9444    0.0000 C   0  0  0  0  0  0  0  0  0  0  0  0
   12.2579    0.4444    0.0000 C   0  0  0  0  0  0  0  0  0  0  0  0
   11.3919   -1.0556    0.0000 C   0  0  0  0  0  0  0  0  0  0  0  0
   12.2579   -0.5556    0.0000 C   0  0  0  0  0  0  0  0  0  0  0  0
   12.2579    2.4444    0.0000 C   0  0  0  0  0  0  0  0  0  0  0  0
   10.5259    2.4444    0.0000 C   0  0  0  0  0  0  0  0  0  0  0  0
   12.2579    3.4444    0.0000 C   0  0  0  0  0  0  0  0  0  0  0  0
   10.5259    3.4444    0.0000 C   0  0  0  0  0  0  0  0  0  0  0  0
   11.3919    3.9444    0.0000 C   0  0  0  0  0  0  0  0  0  0  0  0
    5.2569    0.6868    0.0000 H   0  0  0  0  0  0  0  0  0  0  0  0
    5.4127   -1.0102    0.0000 H   0  0  0  0  0  0  0  0  0  0  0  0
    6.1707   -1.3477    0.0000 H   0  0  0  0  0  0  0  0  0  0  0  0
    6.4582    1.3880    0.0000 H   0  0  0  0  0  0  0  0  0  0  0  0
    5.6466    1.2155    0.0000 H   0  0  0  0  0  0  0  0  0  0  0  0
    7.0221   -1.1668    0.0000 H   0  0  0  0  0  0  0  0  0  0  0  0
    7.5773   -0.5501    0.0000 H   0  0  0  0  0  0  0  0  0  0  0  0
    8.3263    1.4193    0.0000 H   0  0  0  0  0  0  0  0  0  0  0  0
    7.5293    1.4193    0.0000 H   0  0  0  0  0  0  0  0  0  0  0  0
    4.2324    0.7789    0.0000 H   0  0  0  0  0  0  0  0  0  0  0  0
    8.3953   -0.0306    0.0000 H   0  0  0  0  0  0  0  0  0  0  0  0
    9.1924   -0.0306    0.0000 H   0  0  0  0  0  0  0  0  0  0  0  0
    1.9446   -0.9039    0.0000 H   0  0  0  0  0  0  0  0  0  0  0  0
    1.4103   -2.5482    0.0000 H   0  0  0  0  0  0  0  0  0  0  0  0
    9.9890   -0.8656    0.0000 H   0  0  0  0  0  0  0  0  0  0  0  0
   12.7949    0.7544    0.0000 H   0  0  0  0  0  0  0  0  0  0  0  0
   11.3919   -1.6756    0.0000 H   0  0  0  0  0  0  0  0  0  0  0  0
   12.7949   -0.8656    0.0000 H   0  0  0  0  0  0  0  0  0  0  0  0
   12.7949    2.1344    0.0000 H   0  0  0  0  0  0  0  0  0  0  0  0
    9.9890    2.1344    0.0000 H   0  0  0  0  0  0  0  0  0  0  0  0
   12.7949    3.7544    0.0000 H   0  0  0  0  0  0  0  0  0  0  0  0
    9.9890    3.7544    0.0000 H   0  0  0  0  0  0  0  0  0  0  0  0
   11.3919    4.5644    0.0000 H   0  0  0  0  0  0  0  0  0  0  0  0
  1 20  1  0  0  0  0
  2  5  2  0  0  0  0
  2  6  2  0  0  0  0
  2  8  1  0  0  0  0
  2 15  1  0  0  0  0
  3 15  1  0  0  0  0
  3 20  1  0  0  0  0
  4 14  1  0  0  0  0
  4 16  1  0  0  0  0
  7 11  1  0  0  0  0
  7 12  1  0  0  0  0
  7 13  1  0  0  0  0
  9  8  1  6  0  0  0
  8 40  1  0  0  0  0
  9 10  1  0  0  0  0
  9 11  1  0  0  0  0
  9 31  1  0  0  0  0
 10 12  1  0  0  0  0
 10 32  1  0  0  0  0
 10 33  1  0  0  0  0
 11 34  1  0  0  0  0
 11 35  1  0  0  0  0
 12 36  1  0  0  0  0
 12 37  1  0  0  0  0
 13 14  1  0  0  0  0
 13 38  1  0  0  0  0
 13 39  1  0  0  0  0
 14 41  1  0  0  0  0
 14 42  1  0  0  0  0
 15 17  2  0  0  0  0
 16 18  1  0  0  0  0
 16 21  2  0  0  0  0
 17 19  1  0  0  0  0
 17 43  1  0  0  0  0
 18 22  1  0  0  0  0
 18 23  2  0  0  0  0
 19 20  2  0  0  0  0
 19 44  1  0  0  0  0
 21 24  1  0  0  0  0
 21 45  1  0  0  0  0
 22 26  2  0  0  0  0
 22 27  1  0  0  0  0
 23 25  1  0  0  0  0
 23 46  1  0  0  0  0
 24 25  2  0  0  0  0
 24 47  1  0  0  0  0
 25 48  1  0  0  0  0
 26 28  1  0  0  0  0
 26 49  1  0  0  0  0
 27 29  2  0  0  0  0
 27 50  1  0  0  0  0
 28 30  2  0  0  0  0
 28 51  1  0  0  0  0
 29 30  1  0  0  0  0
 29 52  1  0  0  0  0
 30 53  1  0  0  0  0
M  END
> <PUBCHEM_COMPOUND_CID>
71453282

> <PUBCHEM_COMPOUND_CANONICALIZED>
1

> <PUBCHEM_CACTVS_COMPLEXITY>
639

> <PUBCHEM_CACTVS_HBOND_ACCEPTOR>
6

> <PUBCHEM_CACTVS_HBOND_DONOR>
1

> <PUBCHEM_CACTVS_ROTATABLE_BOND>
8

> <PUBCHEM_CACTVS_SUBSKEYS>
AAADceB7MABkAAAAAAAAAAAAAAAAAWJAAAAwYAAAAAAAAAAB0AAAHgYQQAAADC7h2CYwB4NABAqEAiBCAHBDCZAgLRBIiJgOCogOZiKl8xqXOCCk0BG4qAeAwOAOgAAAAAAIAAAAAAAAABAAAAAAAAAAAA==

> <PUBCHEM_IUPAC_OPENEYE_NAME>
5-chloro-N-[(3S)-1-[2-(2-phenylphenoxy)ethyl]pyrrolidin-3-yl]thiophene-2-sulfonamide

> <PUBCHEM_IUPAC_CAS_NAME>
5-chloro-N-[(3S)-1-[2-(2-phenylphenoxy)ethyl]-3-pyrrolidinyl]-2-thiophenesulfonamide

> <PUBCHEM_IUPAC_NAME_MARKUP>
5-chloro-<I>N</I>-[(3<I>S</I>)-1-[2-(2-phenylphenoxy)ethyl]pyrrolidin-3-yl]thiophene-2-sulfonamide

> <PUBCHEM_IUPAC_NAME>
5-chloro-N-[(3S)-1-[2-(2-phenylphenoxy)ethyl]pyrrolidin-3-yl]thiophene-2-sulfonamide

> <PUBCHEM_IUPAC_SYSTEMATIC_NAME>
5-chloranyl-N-[(3S)-1-[2-(2-phenylphenoxy)ethyl]pyrrolidin-3-yl]thiophene-2-sulfonamide

> <PUBCHEM_IUPAC_TRADITIONAL_NAME>
5-chloro-N-[(3S)-1-[2-(2-phenylphenoxy)ethyl]pyrrolidin-3-yl]thiophene-2-sulfonamide

> <PUBCHEM_IUPAC_INCHI>
InChI=1S/C22H23ClN2O3S2/c23-21-10-11-22(29-21)30(26,27)24-18-12-13-25(16-18)14-15-28-20-9-5-4-8-19(20)17-6-2-1-3-7-17/h1-11,18,24H,12-16H2/t18-/m0/s1

> <PUBCHEM_IUPAC_INCHIKEY>
ZGPMTEINYPKUKN-SFHVURJKSA-N

> <PUBCHEM_XLOGP3_AA>
5.4

> <PUBCHEM_EXACT_MASS>
462.0838626

> <PUBCHEM_MOLECULAR_FORMULA>
C22H23ClN2O3S2

> <PUBCHEM_MOLECULAR_WEIGHT>
463.0

> <PUBCHEM_OPENEYE_CAN_SMILES>
C1CN(CC1NS(=O)(=O)C2=CC=C(S2)Cl)CCOC3=CC=CC=C3C4=CC=CC=C4

> <PUBCHEM_OPENEYE_ISO_SMILES>
C1CN(C[C@H]1NS(=O)(=O)C2=CC=C(S2)Cl)CCOC3=CC=CC=C3C4=CC=CC=C4

> <PUBCHEM_CACTVS_TPSA>
95.3

> <PUBCHEM_MONOISOTOPIC_WEIGHT>
462.0838626

> <PUBCHEM_TOTAL_CHARGE>
0

> <PUBCHEM_HEAVY_ATOM_COUNT>
30

> <PUBCHEM_ATOM_DEF_STEREO_COUNT>
1

> <PUBCHEM_ATOM_UDEF_STEREO_COUNT>
0

> <PUBCHEM_BOND_DEF_STEREO_COUNT>
0

> <PUBCHEM_BOND_UDEF_STEREO_COUNT>
0

> <PUBCHEM_ISOTOPIC_ATOM_COUNT>
0

> <PUBCHEM_COMPONENT_COUNT>
1

> <PUBCHEM_CACTVS_TAUTO_COUNT>
-1

> <PUBCHEM_COORDINATE_TYPE>
1
5
255

> <PUBCHEM_BONDANNOTATIONS>
15  17  8
16  18  8
16  21  8
17  19  8
18  23  8
19  20  8
21  24  8
22  26  8
22  27  8
23  25  8
24  25  8
26  28  8
27  29  8
28  30  8
29  30  8
3  15  8
3  20  8
9  8  6

$$$$
