118726014
  -OEChem-09292322022D

 55 57  0     0  0  0  0  0  0999 V2000
    4.5981    2.5140    0.0000 O   0  0  0  0  0  0  0  0  0  0  0  0
    2.8660    2.5140    0.0000 O   0  0  0  0  0  0  0  0  0  0  0  0
    8.8600   -3.9860    0.0000 O   0  0  0  0  0  0  0  0  0  0  0  0
    4.5981   -0.4860    0.0000 N   0  0  0  0  0  0  0  0  0  0  0  0
    3.7320    4.0140    0.0000 N   0  0  0  0  0  0  0  0  0  0  0  0
    7.2764   -4.7907    0.0000 N   0  0  0  0  0  0  0  0  0  0  0  0
    4.5981    1.5140    0.0000 C   0  0  0  0  0  0  0  0  0  0  0  0
    3.7320    1.0140    0.0000 C   0  0  0  0  0  0  0  0  0  0  0  0
    5.4641    1.0140    0.0000 C   0  0  0  0  0  0  0  0  0  0  0  0
    3.7320    0.0140    0.0000 C   0  0  0  0  0  0  0  0  0  0  0  0
    5.4641    0.0140    0.0000 C   0  0  0  0  0  0  0  0  0  0  0  0
    4.5981   -1.4860    0.0000 C   0  0  0  0  0  0  0  0  0  0  0  0
    5.4641   -1.9860    0.0000 C   0  0  0  0  0  0  0  0  0  0  0  0
    5.4641   -2.9860    0.0000 C   0  0  0  0  0  0  0  0  0  0  0  0
    6.3301   -3.4860    0.0000 C   0  0  0  0  0  0  0  0  0  0  0  0
    7.2764   -3.1812    0.0000 C   0  0  0  0  0  0  0  0  0  0  0  0
    2.8660    4.5140    0.0000 C   0  0  0  0  0  0  0  0  0  0  0  0
    6.3301   -4.4860    0.0000 C   0  0  0  0  0  0  0  0  0  0  0  0
    3.7320    3.0140    0.0000 C   0  0  0  0  0  0  0  0  0  0  0  0
    4.5981   -3.4860    0.0000 C   0  0  0  0  0  0  0  0  0  0  0  0
    7.8600   -3.9860    0.0000 C   0  0  0  0  0  0  0  0  0  0  0  0
    5.4641   -4.9860    0.0000 C   0  0  0  0  0  0  0  0  0  0  0  0
    4.5981   -4.4860    0.0000 C   0  0  0  0  0  0  0  0  0  0  0  0
    2.0000    5.0140    0.0000 C   0  0  0  0  0  0  0  0  0  0  0  0
    3.3660    5.3800    0.0000 C   0  0  0  0  0  0  0  0  0  0  0  0
    2.3660    3.6480    0.0000 C   0  0  0  0  0  0  0  0  0  0  0  0
    5.1350    1.8240    0.0000 H   0  0  0  0  0  0  0  0  0  0  0  0
    3.5200    1.5966    0.0000 H   0  0  0  0  0  0  0  0  0  0  0  0
    3.1215    0.9064    0.0000 H   0  0  0  0  0  0  0  0  0  0  0  0
    6.0747    0.9064    0.0000 H   0  0  0  0  0  0  0  0  0  0  0  0
    5.6762    1.5966    0.0000 H   0  0  0  0  0  0  0  0  0  0  0  0
    3.1215    0.1217    0.0000 H   0  0  0  0  0  0  0  0  0  0  0  0
    3.5200   -0.5686    0.0000 H   0  0  0  0  0  0  0  0  0  0  0  0
    5.6762   -0.5686    0.0000 H   0  0  0  0  0  0  0  0  0  0  0  0
    6.0747    0.1217    0.0000 H   0  0  0  0  0  0  0  0  0  0  0  0
    3.9875   -1.3783    0.0000 H   0  0  0  0  0  0  0  0  0  0  0  0
    4.3860   -2.0686    0.0000 H   0  0  0  0  0  0  0  0  0  0  0  0
    6.0747   -2.0936    0.0000 H   0  0  0  0  0  0  0  0  0  0  0  0
    5.6762   -1.4034    0.0000 H   0  0  0  0  0  0  0  0  0  0  0  0
    7.8137   -2.8720    0.0000 H   0  0  0  0  0  0  0  0  0  0  0  0
    7.0253   -2.6144    0.0000 H   0  0  0  0  0  0  0  0  0  0  0  0
    4.0611   -3.1760    0.0000 H   0  0  0  0  0  0  0  0  0  0  0  0
    4.2690    4.3240    0.0000 H   0  0  0  0  0  0  0  0  0  0  0  0
    7.4690   -5.3800    0.0000 H   0  0  0  0  0  0  0  0  0  0  0  0
    5.4641   -5.6060    0.0000 H   0  0  0  0  0  0  0  0  0  0  0  0
    4.0611   -4.7960    0.0000 H   0  0  0  0  0  0  0  0  0  0  0  0
    2.3100    5.5510    0.0000 H   0  0  0  0  0  0  0  0  0  0  0  0
    1.4631    5.3240    0.0000 H   0  0  0  0  0  0  0  0  0  0  0  0
    1.6900    4.4771    0.0000 H   0  0  0  0  0  0  0  0  0  0  0  0
    3.9030    5.0700    0.0000 H   0  0  0  0  0  0  0  0  0  0  0  0
    3.6760    5.9170    0.0000 H   0  0  0  0  0  0  0  0  0  0  0  0
    2.8291    5.6900    0.0000 H   0  0  0  0  0  0  0  0  0  0  0  0
    1.8291    3.9580    0.0000 H   0  0  0  0  0  0  0  0  0  0  0  0
    2.0560    3.1110    0.0000 H   0  0  0  0  0  0  0  0  0  0  0  0
    2.9030    3.3380    0.0000 H   0  0  0  0  0  0  0  0  0  0  0  0
  1  7  1  0  0  0  0
  1 19  1  0  0  0  0
  2 19  2  0  0  0  0
  3 21  2  0  0  0  0
  4 10  1  0  0  0  0
  4 11  1  0  0  0  0
  4 12  1  0  0  0  0
  5 17  1  0  0  0  0
  5 19  1  0  0  0  0
  5 43  1  0  0  0  0
  6 18  1  0  0  0  0
  6 21  1  0  0  0  0
  6 44  1  0  0  0  0
  7  8  1  0  0  0  0
  7  9  1  0  0  0  0
  7 27  1  0  0  0  0
  8 10  1  0  0  0  0
  8 28  1  0  0  0  0
  8 29  1  0  0  0  0
  9 11  1  0  0  0  0
  9 30  1  0  0  0  0
  9 31  1  0  0  0  0
 10 32  1  0  0  0  0
 10 33  1  0  0  0  0
 11 34  1  0  0  0  0
 11 35  1  0  0  0  0
 12 13  1  0  0  0  0
 12 36  1  0  0  0  0
 12 37  1  0  0  0  0
 13 14  1  0  0  0  0
 13 38  1  0  0  0  0
 13 39  1  0  0  0  0
 14 15  2  0  0  0  0
 14 20  1  0  0  0  0
 15 16  1  0  0  0  0
 15 18  1  0  0  0  0
 16 21  1  0  0  0  0
 16 40  1  0  0  0  0
 16 41  1  0  0  0  0
 17 24  1  0  0  0  0
 17 25  1  0  0  0  0
 17 26  1  0  0  0  0
 18 22  2  0  0  0  0
 20 23  2  0  0  0  0
 20 42  1  0  0  0  0
 22 23  1  0  0  0  0
 22 45  1  0  0  0  0
 23 46  1  0  0  0  0
 24 47  1  0  0  0  0
 24 48  1  0  0  0  0
 24 49  1  0  0  0  0
 25 50  1  0  0  0  0
 25 51  1  0  0  0  0
 25 52  1  0  0  0  0
 26 53  1  0  0  0  0
 26 54  1  0  0  0  0
 26 55  1  0  0  0  0
M  END
> <PUBCHEM_COMPOUND_CID>
118726014

> <PUBCHEM_COMPOUND_CANONICALIZED>
1

> <PUBCHEM_CACTVS_COMPLEXITY>
509

> <PUBCHEM_CACTVS_HBOND_ACCEPTOR>
4

> <PUBCHEM_CACTVS_HBOND_DONOR>
2

> <PUBCHEM_CACTVS_ROTATABLE_BOND>
6

> <PUBCHEM_CACTVS_SUBSKEYS>
AAADceB7MAAAAAAAAAAAAAAAAAAAAWAAAAA8QAAAAAAAAFgBAAAAHgAQAAAADJzhmAYyyIPABACIAiVSWACCAAAhAgAIiAEIZIkIIDLAlZGMIAhilADIyAcciICOgAAAQAASAAAAAACAACQAAAAAAAAAAA==

> <PUBCHEM_IUPAC_OPENEYE_NAME>
[1-[2-(2-oxoindolin-4-yl)ethyl]-4-piperidyl] N-tert-butylcarbamate

> <PUBCHEM_IUPAC_CAS_NAME>
N-tert-butylcarbamic acid [1-[2-(2-oxo-1,3-dihydroindol-4-yl)ethyl]-4-piperidinyl] ester

> <PUBCHEM_IUPAC_NAME_MARKUP>
[1-[2-(2-oxo-1,3-dihydroindol-4-yl)ethyl]piperidin-4-yl] <I>N</I>-<I>tert</I>-butylcarbamate

> <PUBCHEM_IUPAC_NAME>
[1-[2-(2-oxo-1,3-dihydroindol-4-yl)ethyl]piperidin-4-yl] N-tert-butylcarbamate

> <PUBCHEM_IUPAC_SYSTEMATIC_NAME>
[1-[2-(2-oxidanylidene-1,3-dihydroindol-4-yl)ethyl]piperidin-4-yl] N-tert-butylcarbamate

> <PUBCHEM_IUPAC_TRADITIONAL_NAME>
N-tert-butylcarbamic acid [1-[2-(2-ketoindolin-4-yl)ethyl]-4-piperidyl] ester

> <PUBCHEM_IUPAC_INCHI>
InChI=1S/C20H29N3O3/c1-20(2,3)22-19(25)26-15-8-11-23(12-9-15)10-7-14-5-4-6-17-16(14)13-18(24)21-17/h4-6,15H,7-13H2,1-3H3,(H,21,24)(H,22,25)

> <PUBCHEM_IUPAC_INCHIKEY>
ZJSBMQNEIWWHQB-UHFFFAOYSA-N

> <PUBCHEM_XLOGP3>
2.2

> <PUBCHEM_EXACT_MASS>
359.22089180

> <PUBCHEM_MOLECULAR_FORMULA>
C20H29N3O3

> <PUBCHEM_MOLECULAR_WEIGHT>
359.5

> <PUBCHEM_OPENEYE_CAN_SMILES>
CC(C)(C)NC(=O)OC1CCN(CC1)CCC2=C3CC(=O)NC3=CC=C2

> <PUBCHEM_OPENEYE_ISO_SMILES>
CC(C)(C)NC(=O)OC1CCN(CC1)CCC2=C3CC(=O)NC3=CC=C2

> <PUBCHEM_CACTVS_TPSA>
70.7

> <PUBCHEM_MONOISOTOPIC_WEIGHT>
359.22089180

> <PUBCHEM_TOTAL_CHARGE>
0

> <PUBCHEM_HEAVY_ATOM_COUNT>
26

> <PUBCHEM_ATOM_DEF_STEREO_COUNT>
0

> <PUBCHEM_ATOM_UDEF_STEREO_COUNT>
0

> <PUBCHEM_BOND_DEF_STEREO_COUNT>
0

> <PUBCHEM_BOND_UDEF_STEREO_COUNT>
0

> <PUBCHEM_ISOTOPIC_ATOM_COUNT>
0

> <PUBCHEM_COMPONENT_COUNT>
1

> <PUBCHEM_CACTVS_TAUTO_COUNT>
-1

> <PUBCHEM_COORDINATE_TYPE>
1
5
255

> <PUBCHEM_BONDANNOTATIONS>
14  15  8
14  20  8
15  18  8
18  22  8
20  23  8
22  23  8

$$$$
