21302490
  -OEChem-09292322062D

 57 61  0     1  0  0  0  0  0999 V2000
    6.4314    6.3613    0.0000 F   0  0  0  0  0  0  0  0  0  0  0  0
    3.4180    2.9088    0.0000 O   0  0  0  0  0  0  0  0  0  0  0  0
    3.0749   -3.3102    0.0000 N   0  0  3  0  0  0  0  0  0  0  0  0
    4.4047   -0.5591    0.0000 N   0  0  3  0  0  0  0  0  0  0  0  0
    2.8427   -5.3664    0.0000 N   0  0  3  0  0  0  0  0  0  0  0  0
    3.3839   -2.3591    0.0000 C   0  0  2  0  0  0  0  0  0  0  0  0
    4.3839   -2.3591    0.0000 C   0  0  1  0  0  0  0  0  0  0  0  0
    2.8492   -1.4652    0.0000 C   0  0  0  0  0  0  0  0  0  0  0  0
    4.9185   -1.4652    0.0000 C   0  0  0  0  0  0  0  0  0  0  0  0
    4.6929   -3.3102    0.0000 C   0  0  0  0  0  0  0  0  0  0  0  0
    3.8839   -3.8980    0.0000 C   0  0  0  0  0  0  0  0  0  0  0  0
    3.3631   -0.5591    0.0000 C   0  0  0  0  0  0  0  0  0  0  0  0
    2.1169   -3.7191    0.0000 C   0  0  0  0  0  0  0  0  0  0  0  0
    3.7910   -4.9354    0.0000 C   0  0  0  0  0  0  0  0  0  0  0  0
    2.0000   -4.7542    0.0000 C   0  0  0  0  0  0  0  0  0  0  0  0
    4.9080    0.3050    0.0000 C   0  0  0  0  0  0  0  0  0  0  0  0
    5.5492   -3.8411    0.0000 C   0  0  0  0  0  0  0  0  0  0  0  0
    4.6946   -5.3811    0.0000 C   0  0  0  0  0  0  0  0  0  0  0  0
    5.5500   -4.8487    0.0000 C   0  0  0  0  0  0  0  0  0  0  0  0
    4.4114    1.1729    0.0000 C   0  0  0  0  0  0  0  0  0  0  0  0
    2.7420   -6.3613    0.0000 C   0  0  0  0  0  0  0  0  0  0  0  0
    4.9147    2.0370    0.0000 C   0  0  0  0  0  0  0  0  0  0  0  0
    4.4180    2.9050    0.0000 C   0  0  0  0  0  0  0  0  0  0  0  0
    4.9214    3.7691    0.0000 C   0  0  0  0  0  0  0  0  0  0  0  0
    5.9214    3.7652    0.0000 C   0  0  0  0  0  0  0  0  0  0  0  0
    4.4247    4.6370    0.0000 C   0  0  0  0  0  0  0  0  0  0  0  0
    6.4247    4.6293    0.0000 C   0  0  0  0  0  0  0  0  0  0  0  0
    4.9280    5.5011    0.0000 C   0  0  0  0  0  0  0  0  0  0  0  0
    5.9280    5.4972    0.0000 C   0  0  0  0  0  0  0  0  0  0  0  0
    2.5392   -2.4545    0.0000 H   0  0  0  0  0  0  0  0  0  0  0  0
    5.2285   -2.4545    0.0000 H   0  0  0  0  0  0  0  0  0  0  0  0
    2.3702   -1.0715    0.0000 H   0  0  0  0  0  0  0  0  0  0  0  0
    2.3794   -1.8698    0.0000 H   0  0  0  0  0  0  0  0  0  0  0  0
    5.3883   -1.8698    0.0000 H   0  0  0  0  0  0  0  0  0  0  0  0
    5.3976   -1.0715    0.0000 H   0  0  0  0  0  0  0  0  0  0  0  0
    3.4692    0.0518    0.0000 H   0  0  0  0  0  0  0  0  0  0  0  0
    2.7794   -0.3500    0.0000 H   0  0  0  0  0  0  0  0  0  0  0  0
    1.9746   -3.1156    0.0000 H   0  0  0  0  0  0  0  0  0  0  0  0
    1.4980   -3.7560    0.0000 H   0  0  0  0  0  0  0  0  0  0  0  0
    1.4049   -4.5802    0.0000 H   0  0  0  0  0  0  0  0  0  0  0  0
    1.7268   -5.3107    0.0000 H   0  0  0  0  0  0  0  0  0  0  0  0
    5.3814   -0.0954    0.0000 H   0  0  0  0  0  0  0  0  0  0  0  0
    5.3845    0.7017    0.0000 H   0  0  0  0  0  0  0  0  0  0  0  0
    6.0908   -3.5394    0.0000 H   0  0  0  0  0  0  0  0  0  0  0  0
    4.7252   -6.0003    0.0000 H   0  0  0  0  0  0  0  0  0  0  0  0
    6.0921   -5.1495    0.0000 H   0  0  0  0  0  0  0  0  0  0  0  0
    3.9380    1.5733    0.0000 H   0  0  0  0  0  0  0  0  0  0  0  0
    3.9349    0.7762    0.0000 H   0  0  0  0  0  0  0  0  0  0  0  0
    2.1252   -6.2989    0.0000 H   0  0  0  0  0  0  0  0  0  0  0  0
    2.6796   -6.9782    0.0000 H   0  0  0  0  0  0  0  0  0  0  0  0
    3.3588   -6.4238    0.0000 H   0  0  0  0  0  0  0  0  0  0  0  0
    5.3881    1.6367    0.0000 H   0  0  0  0  0  0  0  0  0  0  0  0
    5.3912    2.4337    0.0000 H   0  0  0  0  0  0  0  0  0  0  0  0
    6.2293    3.2271    0.0000 H   0  0  0  0  0  0  0  0  0  0  0  0
    3.8047    4.6394    0.0000 H   0  0  0  0  0  0  0  0  0  0  0  0
    7.0447    4.6269    0.0000 H   0  0  0  0  0  0  0  0  0  0  0  0
    4.6201    6.0392    0.0000 H   0  0  0  0  0  0  0  0  0  0  0  0
  1 29  1  0  0  0  0
  2 23  2  0  0  0  0
  3  6  1  0  0  0  0
  3 11  1  0  0  0  0
  3 13  1  0  0  0  0
  4  9  1  0  0  0  0
  4 12  1  0  0  0  0
  4 16  1  0  0  0  0
  5 14  1  0  0  0  0
  5 15  1  0  0  0  0
  5 21  1  0  0  0  0
  6  7  1  0  0  0  0
  6  8  1  0  0  0  0
  6 30  1  6  0  0  0
  7  9  1  0  0  0  0
  7 10  1  0  0  0  0
  7 31  1  6  0  0  0
  8 12  1  0  0  0  0
  8 32  1  0  0  0  0
  8 33  1  0  0  0  0
  9 34  1  0  0  0  0
  9 35  1  0  0  0  0
 10 11  2  0  0  0  0
 10 17  1  0  0  0  0
 11 14  1  0  0  0  0
 12 36  1  0  0  0  0
 12 37  1  0  0  0  0
 13 15  1  0  0  0  0
 13 38  1  0  0  0  0
 13 39  1  0  0  0  0
 14 18  2  0  0  0  0
 15 40  1  0  0  0  0
 15 41  1  0  0  0  0
 16 20  1  0  0  0  0
 16 42  1  0  0  0  0
 16 43  1  0  0  0  0
 17 19  2  0  0  0  0
 17 44  1  0  0  0  0
 18 19  1  0  0  0  0
 18 45  1  0  0  0  0
 19 46  1  0  0  0  0
 20 22  1  0  0  0  0
 20 47  1  0  0  0  0
 20 48  1  0  0  0  0
 21 49  1  0  0  0  0
 21 50  1  0  0  0  0
 21 51  1  0  0  0  0
 22 23  1  0  0  0  0
 22 52  1  0  0  0  0
 22 53  1  0  0  0  0
 23 24  1  0  0  0  0
 24 25  2  0  0  0  0
 24 26  1  0  0  0  0
 25 27  1  0  0  0  0
 25 54  1  0  0  0  0
 26 28  2  0  0  0  0
 26 55  1  0  0  0  0
 27 29  2  0  0  0  0
 27 56  1  0  0  0  0
 28 29  1  0  0  0  0
 28 57  1  0  0  0  0
M  END
> <PUBCHEM_COMPOUND_CID>
21302490

> <PUBCHEM_COMPOUND_CANONICALIZED>
1

> <PUBCHEM_CACTVS_COMPLEXITY>
593

> <PUBCHEM_CACTVS_HBOND_ACCEPTOR>
5

> <PUBCHEM_CACTVS_HBOND_DONOR>
0

> <PUBCHEM_CACTVS_ROTATABLE_BOND>
5

> <PUBCHEM_CACTVS_SUBSKEYS>
AAADceB7IQAAAAAAAAAAAAAAAAAAAWAAAAA8eIEAAAAAAFixQAAAHwAAAAAADSzBmAwywIMAAACIAqRSQACCAAAlAgAIiAEIdMgIYDLA1ZGUIQhggADIyYcciMCOgAAAQAACACAAAACAAAQAQAAAAAAAAA==

> <PUBCHEM_IUPAC_OPENEYE_NAME>
1-(4-fluorophenyl)-4-[(10R,15S)-4-methyl-1,4,12-triazatetracyclo[7.6.1.05,16.010,15]hexadeca-5,7,9(16)-trien-12-yl]butan-1-one

> <PUBCHEM_IUPAC_CAS_NAME>
1-(4-fluorophenyl)-4-[(10R,15S)-4-methyl-1,4,12-triazatetracyclo[7.6.1.05,16.010,15]hexadeca-5,7,9(16)-trien-12-yl]-1-butanone

> <PUBCHEM_IUPAC_NAME_MARKUP>
1-(4-fluorophenyl)-4-[(10<I>R</I>,15<I>S</I>)-4-methyl-1,4,12-triazatetracyclo[7.6.1.0<SUP>5,16</SUP>.0<SUP>10,15</SUP>]hexadeca-5,7,9(16)-trien-12-yl]butan-1-one

> <PUBCHEM_IUPAC_NAME>
1-(4-fluorophenyl)-4-[(10R,15S)-4-methyl-1,4,12-triazatetracyclo[7.6.1.05,16.010,15]hexadeca-5,7,9(16)-trien-12-yl]butan-1-one

> <PUBCHEM_IUPAC_SYSTEMATIC_NAME>
1-(4-fluorophenyl)-4-[(10R,15S)-4-methyl-1,4,12-triazatetracyclo[7.6.1.05,16.010,15]hexadeca-5,7,9(16)-trien-12-yl]butan-1-one

> <PUBCHEM_IUPAC_TRADITIONAL_NAME>
1-(4-fluorophenyl)-4-[(10R,15S)-4-methyl-1,4,12-triazatetracyclo[7.6.1.05,16.010,15]hexadeca-5,7,9(16)-trien-12-yl]butan-1-one

> <PUBCHEM_IUPAC_INCHI>
InChI=1S/C24H28FN3O/c1-26-14-15-28-21-11-13-27(16-20(21)19-4-2-5-22(26)24(19)28)12-3-6-23(29)17-7-9-18(25)10-8-17/h2,4-5,7-10,20-21H,3,6,11-16H2,1H3/t20-,21-/m0/s1

> <PUBCHEM_IUPAC_INCHIKEY>
HOIIHACBCFLJET-SFTDATJTSA-N

> <PUBCHEM_XLOGP3_AA>
3.8

> <PUBCHEM_EXACT_MASS>
393.22164069

> <PUBCHEM_MOLECULAR_FORMULA>
C24H28FN3O

> <PUBCHEM_MOLECULAR_WEIGHT>
393.5

> <PUBCHEM_OPENEYE_CAN_SMILES>
CN1CCN2C3CCN(CC3C4=C2C1=CC=C4)CCCC(=O)C5=CC=C(C=C5)F

> <PUBCHEM_OPENEYE_ISO_SMILES>
CN1CCN2[C@H]3CCN(C[C@H]3C4=C2C1=CC=C4)CCCC(=O)C5=CC=C(C=C5)F

> <PUBCHEM_CACTVS_TPSA>
26.8

> <PUBCHEM_MONOISOTOPIC_WEIGHT>
393.22164069

> <PUBCHEM_TOTAL_CHARGE>
0

> <PUBCHEM_HEAVY_ATOM_COUNT>
29

> <PUBCHEM_ATOM_DEF_STEREO_COUNT>
2

> <PUBCHEM_ATOM_UDEF_STEREO_COUNT>
0

> <PUBCHEM_BOND_DEF_STEREO_COUNT>
0

> <PUBCHEM_BOND_UDEF_STEREO_COUNT>
0

> <PUBCHEM_ISOTOPIC_ATOM_COUNT>
0

> <PUBCHEM_COMPONENT_COUNT>
1

> <PUBCHEM_CACTVS_TAUTO_COUNT>
2

> <PUBCHEM_COORDINATE_TYPE>
1
5
255

> <PUBCHEM_BONDANNOTATIONS>
10  11  8
10  17  8
11  14  8
14  18  8
17  19  8
18  19  8
24  25  8
24  26  8
25  27  8
26  28  8
27  29  8
28  29  8
6  30  6
7  31  6

$$$$
