10383646
  -OEChem-09292322312D

 45 48  0     0  0  0  0  0  0999 V2000
    8.4530   -0.0482    0.0000 S   0  0  0  0  0  0  0  0  0  0  0  0
    9.4035   -0.3588    0.0000 O   0  0  0  0  0  0  0  0  0  0  0  0
    7.5025    0.2625    0.0000 O   0  0  0  0  0  0  0  0  0  0  0  0
    4.5981   -0.8034    0.0000 N   0  0  0  0  0  0  0  0  0  0  0  0
    2.8660    0.1966    0.0000 N   0  0  0  0  0  0  0  0  0  0  0  0
    8.7260   -1.8034    0.0000 N   0  0  0  0  0  0  0  0  0  0  0  0
    8.1424   -2.6081    0.0000 N   0  0  0  0  0  0  0  0  0  0  0  0
    4.5981    0.1966    0.0000 C   0  0  0  0  0  0  0  0  0  0  0  0
    3.7320   -1.3034    0.0000 C   0  0  0  0  0  0  0  0  0  0  0  0
    3.7320    0.6966    0.0000 C   0  0  0  0  0  0  0  0  0  0  0  0
    2.8660   -0.8034    0.0000 C   0  0  0  0  0  0  0  0  0  0  0  0
    5.4641   -1.3034    0.0000 C   0  0  0  0  0  0  0  0  0  0  0  0
    7.1962   -1.3034    0.0000 C   0  0  0  0  0  0  0  0  0  0  0  0
    6.3301   -0.8034    0.0000 C   0  0  0  0  0  0  0  0  0  0  0  0
    2.0000    0.6966    0.0000 C   0  0  0  0  0  0  0  0  0  0  0  0
    5.4641   -2.3034    0.0000 C   0  0  0  0  0  0  0  0  0  0  0  0
    8.1424   -0.9987    0.0000 C   0  0  0  0  0  0  0  0  0  0  0  0
    7.1962   -2.3034    0.0000 C   0  0  0  0  0  0  0  0  0  0  0  0
    6.3301   -2.8034    0.0000 C   0  0  0  0  0  0  0  0  0  0  0  0
    8.7637    0.9024    0.0000 C   0  0  0  0  0  0  0  0  0  0  0  0
    9.7422    1.1086    0.0000 C   0  0  0  0  0  0  0  0  0  0  0  0
    8.0958    1.6467    0.0000 C   0  0  0  0  0  0  0  0  0  0  0  0
   10.0529    2.0591    0.0000 C   0  0  0  0  0  0  0  0  0  0  0  0
    8.4065    2.5972    0.0000 C   0  0  0  0  0  0  0  0  0  0  0  0
    9.3850    2.8034    0.0000 C   0  0  0  0  0  0  0  0  0  0  0  0
    5.2087    0.0889    0.0000 H   0  0  0  0  0  0  0  0  0  0  0  0
    4.8101    0.7792    0.0000 H   0  0  0  0  0  0  0  0  0  0  0  0
    3.3335   -1.7784    0.0000 H   0  0  0  0  0  0  0  0  0  0  0  0
    4.1306   -1.7784    0.0000 H   0  0  0  0  0  0  0  0  0  0  0  0
    4.1306    1.1715    0.0000 H   0  0  0  0  0  0  0  0  0  0  0  0
    3.3335    1.1715    0.0000 H   0  0  0  0  0  0  0  0  0  0  0  0
    2.2554   -0.6957    0.0000 H   0  0  0  0  0  0  0  0  0  0  0  0
    2.6540   -1.3860    0.0000 H   0  0  0  0  0  0  0  0  0  0  0  0
    6.3301   -0.1834    0.0000 H   0  0  0  0  0  0  0  0  0  0  0  0
    2.3100    1.2335    0.0000 H   0  0  0  0  0  0  0  0  0  0  0  0
    1.4631    1.0066    0.0000 H   0  0  0  0  0  0  0  0  0  0  0  0
    1.6900    0.1597    0.0000 H   0  0  0  0  0  0  0  0  0  0  0  0
    4.9272   -2.6134    0.0000 H   0  0  0  0  0  0  0  0  0  0  0  0
    6.3301   -3.4234    0.0000 H   0  0  0  0  0  0  0  0  0  0  0  0
    9.3460   -1.8034    0.0000 H   0  0  0  0  0  0  0  0  0  0  0  0
   10.1563    0.6471    0.0000 H   0  0  0  0  0  0  0  0  0  0  0  0
    7.4892    1.5188    0.0000 H   0  0  0  0  0  0  0  0  0  0  0  0
   10.6595    2.1870    0.0000 H   0  0  0  0  0  0  0  0  0  0  0  0
    7.9924    3.0587    0.0000 H   0  0  0  0  0  0  0  0  0  0  0  0
    9.5776    3.3927    0.0000 H   0  0  0  0  0  0  0  0  0  0  0  0
  1  2  2  0  0  0  0
  1  3  2  0  0  0  0
  1 17  1  0  0  0  0
  1 20  1  0  0  0  0
  4  8  1  0  0  0  0
  4  9  1  0  0  0  0
  4 12  1  0  0  0  0
  5 10  1  0  0  0  0
  5 11  1  0  0  0  0
  5 15  1  0  0  0  0
  6  7  1  0  0  0  0
  6 17  1  0  0  0  0
  6 40  1  0  0  0  0
  7 18  2  0  0  0  0
  8 10  1  0  0  0  0
  8 26  1  0  0  0  0
  8 27  1  0  0  0  0
  9 11  1  0  0  0  0
  9 28  1  0  0  0  0
  9 29  1  0  0  0  0
 10 30  1  0  0  0  0
 10 31  1  0  0  0  0
 11 32  1  0  0  0  0
 11 33  1  0  0  0  0
 12 14  2  0  0  0  0
 12 16  1  0  0  0  0
 13 14  1  0  0  0  0
 13 17  2  0  0  0  0
 13 18  1  0  0  0  0
 14 34  1  0  0  0  0
 15 35  1  0  0  0  0
 15 36  1  0  0  0  0
 15 37  1  0  0  0  0
 16 19  2  0  0  0  0
 16 38  1  0  0  0  0
 18 19  1  0  0  0  0
 19 39  1  0  0  0  0
 20 21  2  0  0  0  0
 20 22  1  0  0  0  0
 21 23  1  0  0  0  0
 21 41  1  0  0  0  0
 22 24  2  0  0  0  0
 22 42  1  0  0  0  0
 23 25  2  0  0  0  0
 23 43  1  0  0  0  0
 24 25  1  0  0  0  0
 24 44  1  0  0  0  0
 25 45  1  0  0  0  0
M  END
> <PUBCHEM_COMPOUND_CID>
10383646

> <PUBCHEM_COMPOUND_CANONICALIZED>
1

> <PUBCHEM_CACTVS_COMPLEXITY>
550

> <PUBCHEM_CACTVS_HBOND_ACCEPTOR>
5

> <PUBCHEM_CACTVS_HBOND_DONOR>
1

> <PUBCHEM_CACTVS_ROTATABLE_BOND>
3

> <PUBCHEM_CACTVS_SUBSKEYS>
AAADceB7sABAAAAAAAAAAAAAAAAAAWAAAAA8YIAAAAAAAFgB9AAAHAQYAAAADAjBXgQywfNjAAqiAyRiQHDaBgBhChAYuTg4ZJgIYKLg0dGUpAxgiADoyAcQgAAOAACAQAACAAAAAQCAAAQAAAAAAAAAAA==

> <PUBCHEM_IUPAC_OPENEYE_NAME>
3-(benzenesulfonyl)-5-(4-methylpiperazin-1-yl)-2H-indazole

> <PUBCHEM_IUPAC_CAS_NAME>
3-(benzenesulfonyl)-5-(4-methyl-1-piperazinyl)-2H-indazole

> <PUBCHEM_IUPAC_NAME_MARKUP>
3-(benzenesulfonyl)-5-(4-methylpiperazin-1-yl)-2<I>H</I>-indazole

> <PUBCHEM_IUPAC_NAME>
3-(benzenesulfonyl)-5-(4-methylpiperazin-1-yl)-2H-indazole

> <PUBCHEM_IUPAC_SYSTEMATIC_NAME>
5-(4-methylpiperazin-1-yl)-3-(phenylsulfonyl)-2H-indazole

> <PUBCHEM_IUPAC_TRADITIONAL_NAME>
3-besyl-5-(4-methylpiperazino)-2H-indazole

> <PUBCHEM_IUPAC_INCHI>
InChI=1S/C18H20N4O2S/c1-21-9-11-22(12-10-21)14-7-8-17-16(13-14)18(20-19-17)25(23,24)15-5-3-2-4-6-15/h2-8,13H,9-12H2,1H3,(H,19,20)

> <PUBCHEM_IUPAC_INCHIKEY>
SVLOBFJUUCMSOY-UHFFFAOYSA-N

> <PUBCHEM_XLOGP3_AA>
2.6

> <PUBCHEM_EXACT_MASS>
356.13069707

> <PUBCHEM_MOLECULAR_FORMULA>
C18H20N4O2S

> <PUBCHEM_MOLECULAR_WEIGHT>
356.4

> <PUBCHEM_OPENEYE_CAN_SMILES>
CN1CCN(CC1)C2=CC3=C(NN=C3C=C2)S(=O)(=O)C4=CC=CC=C4

> <PUBCHEM_OPENEYE_ISO_SMILES>
CN1CCN(CC1)C2=CC3=C(NN=C3C=C2)S(=O)(=O)C4=CC=CC=C4

> <PUBCHEM_CACTVS_TPSA>
77.7

> <PUBCHEM_MONOISOTOPIC_WEIGHT>
356.13069707

> <PUBCHEM_TOTAL_CHARGE>
0

> <PUBCHEM_HEAVY_ATOM_COUNT>
25

> <PUBCHEM_ATOM_DEF_STEREO_COUNT>
0

> <PUBCHEM_ATOM_UDEF_STEREO_COUNT>
0

> <PUBCHEM_BOND_DEF_STEREO_COUNT>
0

> <PUBCHEM_BOND_UDEF_STEREO_COUNT>
0

> <PUBCHEM_ISOTOPIC_ATOM_COUNT>
0

> <PUBCHEM_COMPONENT_COUNT>
1

> <PUBCHEM_CACTVS_TAUTO_COUNT>
-1

> <PUBCHEM_COORDINATE_TYPE>
1
5
255

> <PUBCHEM_BONDANNOTATIONS>
12  14  8
12  16  8
13  14  8
13  17  8
13  18  8
16  19  8
18  19  8
20  21  8
20  22  8
21  23  8
22  24  8
23  25  8
24  25  8
6  17  8
6  7  8
7  18  8

$$$$
