12052258
  -OEChem-09292322222D

 50 53  0     0  0  0  0  0  0999 V2000
    2.0000   -3.0352    0.0000 Cl  0  0  0  0  0  0  0  0  0  0  0  0
    5.4641   -2.0352    0.0000 N   0  0  0  0  0  0  0  0  0  0  0  0
    5.4641    0.9648    0.0000 N   0  0  0  0  0  0  0  0  0  0  0  0
    4.6551    1.5526    0.0000 N   0  0  0  0  0  0  0  0  0  0  0  0
    5.4641   -0.0352    0.0000 C   0  0  0  0  0  0  0  0  0  0  0  0
    4.5981   -0.5352    0.0000 C   0  0  0  0  0  0  0  0  0  0  0  0
    6.3301   -0.5352    0.0000 C   0  0  0  0  0  0  0  0  0  0  0  0
    4.5981   -1.5352    0.0000 C   0  0  0  0  0  0  0  0  0  0  0  0
    6.3301   -1.5352    0.0000 C   0  0  0  0  0  0  0  0  0  0  0  0
    5.4641   -3.0352    0.0000 C   0  0  0  0  0  0  0  0  0  0  0  0
    6.2731    1.5526    0.0000 C   0  0  0  0  0  0  0  0  0  0  0  0
    4.5981   -3.5352    0.0000 C   0  0  0  0  0  0  0  0  0  0  0  0
    5.9641    2.5036    0.0000 C   0  0  0  0  0  0  0  0  0  0  0  0
    4.9641    2.5036    0.0000 C   0  0  0  0  0  0  0  0  0  0  0  0
    6.5519    3.3126    0.0000 C   0  0  0  0  0  0  0  0  0  0  0  0
    3.7320   -3.0352    0.0000 C   0  0  0  0  0  0  0  0  0  0  0  0
    4.5981   -4.5352    0.0000 C   0  0  0  0  0  0  0  0  0  0  0  0
    4.3763    3.3126    0.0000 C   0  0  0  0  0  0  0  0  0  0  0  0
    2.8660   -3.5352    0.0000 C   0  0  0  0  0  0  0  0  0  0  0  0
    3.7320   -5.0352    0.0000 C   0  0  0  0  0  0  0  0  0  0  0  0
    6.1452    4.2262    0.0000 C   0  0  0  0  0  0  0  0  0  0  0  0
    7.5464    3.2081    0.0000 C   0  0  0  0  0  0  0  0  0  0  0  0
    2.8660   -4.5352    0.0000 C   0  0  0  0  0  0  0  0  0  0  0  0
    6.7329    5.0352    0.0000 C   0  0  0  0  0  0  0  0  0  0  0  0
    8.1342    4.0171    0.0000 C   0  0  0  0  0  0  0  0  0  0  0  0
    7.7275    4.9307    0.0000 C   0  0  0  0  0  0  0  0  0  0  0  0
    6.0010    0.2748    0.0000 H   0  0  0  0  0  0  0  0  0  0  0  0
    4.3860    0.0474    0.0000 H   0  0  0  0  0  0  0  0  0  0  0  0
    3.9875   -0.6429    0.0000 H   0  0  0  0  0  0  0  0  0  0  0  0
    6.9407   -0.6429    0.0000 H   0  0  0  0  0  0  0  0  0  0  0  0
    6.5422    0.0474    0.0000 H   0  0  0  0  0  0  0  0  0  0  0  0
    3.9875   -1.4276    0.0000 H   0  0  0  0  0  0  0  0  0  0  0  0
    4.3860   -2.1178    0.0000 H   0  0  0  0  0  0  0  0  0  0  0  0
    6.5422   -2.1178    0.0000 H   0  0  0  0  0  0  0  0  0  0  0  0
    6.9407   -1.4276    0.0000 H   0  0  0  0  0  0  0  0  0  0  0  0
    5.6762   -3.6178    0.0000 H   0  0  0  0  0  0  0  0  0  0  0  0
    6.0747   -2.9276    0.0000 H   0  0  0  0  0  0  0  0  0  0  0  0
    6.8628    1.3610    0.0000 H   0  0  0  0  0  0  0  0  0  0  0  0
    3.7320   -2.4152    0.0000 H   0  0  0  0  0  0  0  0  0  0  0  0
    5.1350   -4.8452    0.0000 H   0  0  0  0  0  0  0  0  0  0  0  0
    4.8779    3.6771    0.0000 H   0  0  0  0  0  0  0  0  0  0  0  0
    4.0119    3.8142    0.0000 H   0  0  0  0  0  0  0  0  0  0  0  0
    3.8747    2.9482    0.0000 H   0  0  0  0  0  0  0  0  0  0  0  0
    3.7320   -5.6552    0.0000 H   0  0  0  0  0  0  0  0  0  0  0  0
    5.5286    4.2910    0.0000 H   0  0  0  0  0  0  0  0  0  0  0  0
    7.7986    2.6417    0.0000 H   0  0  0  0  0  0  0  0  0  0  0  0
    2.3291   -4.8452    0.0000 H   0  0  0  0  0  0  0  0  0  0  0  0
    6.4808    5.6016    0.0000 H   0  0  0  0  0  0  0  0  0  0  0  0
    8.7508    3.9523    0.0000 H   0  0  0  0  0  0  0  0  0  0  0  0
    8.0919    5.4323    0.0000 H   0  0  0  0  0  0  0  0  0  0  0  0
  1 19  1  0  0  0  0
  2  8  1  0  0  0  0
  2  9  1  0  0  0  0
  2 10  1  0  0  0  0
  3  4  1  0  0  0  0
  3  5  1  0  0  0  0
  3 11  1  0  0  0  0
  4 14  2  0  0  0  0
  5  6  1  0  0  0  0
  5  7  1  0  0  0  0
  5 27  1  0  0  0  0
  6  8  1  0  0  0  0
  6 28  1  0  0  0  0
  6 29  1  0  0  0  0
  7  9  1  0  0  0  0
  7 30  1  0  0  0  0
  7 31  1  0  0  0  0
  8 32  1  0  0  0  0
  8 33  1  0  0  0  0
  9 34  1  0  0  0  0
  9 35  1  0  0  0  0
 10 12  1  0  0  0  0
 10 36  1  0  0  0  0
 10 37  1  0  0  0  0
 11 13  2  0  0  0  0
 11 38  1  0  0  0  0
 12 16  2  0  0  0  0
 12 17  1  0  0  0  0
 13 14  1  0  0  0  0
 13 15  1  0  0  0  0
 14 18  1  0  0  0  0
 15 21  2  0  0  0  0
 15 22  1  0  0  0  0
 16 19  1  0  0  0  0
 16 39  1  0  0  0  0
 17 20  2  0  0  0  0
 17 40  1  0  0  0  0
 18 41  1  0  0  0  0
 18 42  1  0  0  0  0
 18 43  1  0  0  0  0
 19 23  2  0  0  0  0
 20 23  1  0  0  0  0
 20 44  1  0  0  0  0
 21 24  1  0  0  0  0
 21 45  1  0  0  0  0
 22 25  2  0  0  0  0
 22 46  1  0  0  0  0
 23 47  1  0  0  0  0
 24 26  2  0  0  0  0
 24 48  1  0  0  0  0
 25 26  1  0  0  0  0
 25 49  1  0  0  0  0
 26 50  1  0  0  0  0
M  END
> <PUBCHEM_COMPOUND_CID>
12052258

> <PUBCHEM_COMPOUND_CANONICALIZED>
1

> <PUBCHEM_CACTVS_COMPLEXITY>
431

> <PUBCHEM_CACTVS_HBOND_ACCEPTOR>
2

> <PUBCHEM_CACTVS_HBOND_DONOR>
0

> <PUBCHEM_CACTVS_ROTATABLE_BOND>
4

> <PUBCHEM_CACTVS_SUBSKEYS>
AAADceB7AAAEAAAAAAAAAAAAAAAAAWAAAAA8YIAAAAAAAAAB0AAAHAIIAAAADCrBHiQ+gJMIAACiAzRnRACSBAAxhQAY2CA4RpgIIKLB09GEpAhgiADIyAcQgMAOgAAAIAAAAAAAAABAAAAAAAAAAAAAAA==

> <PUBCHEM_IUPAC_OPENEYE_NAME>
1-[(3-chlorophenyl)methyl]-4-(3-methyl-4-phenyl-pyrazol-1-yl)piperidine

> <PUBCHEM_IUPAC_CAS_NAME>
1-[(3-chlorophenyl)methyl]-4-(3-methyl-4-phenyl-1-pyrazolyl)piperidine

> <PUBCHEM_IUPAC_NAME_MARKUP>
1-[(3-chlorophenyl)methyl]-4-(3-methyl-4-phenylpyrazol-1-yl)piperidine

> <PUBCHEM_IUPAC_NAME>
1-[(3-chlorophenyl)methyl]-4-(3-methyl-4-phenylpyrazol-1-yl)piperidine

> <PUBCHEM_IUPAC_SYSTEMATIC_NAME>
1-[(3-chlorophenyl)methyl]-4-(3-methyl-4-phenyl-pyrazol-1-yl)piperidine

> <PUBCHEM_IUPAC_TRADITIONAL_NAME>
1-(3-chlorobenzyl)-4-(3-methyl-4-phenyl-pyrazol-1-yl)piperidine

> <PUBCHEM_IUPAC_INCHI>
InChI=1S/C22H24ClN3/c1-17-22(19-7-3-2-4-8-19)16-26(24-17)21-10-12-25(13-11-21)15-18-6-5-9-20(23)14-18/h2-9,14,16,21H,10-13,15H2,1H3

> <PUBCHEM_IUPAC_INCHIKEY>
UGAZJRFHXXPSOK-UHFFFAOYSA-N

> <PUBCHEM_XLOGP3_AA>
4.9

> <PUBCHEM_EXACT_MASS>
365.1658755

> <PUBCHEM_MOLECULAR_FORMULA>
C22H24ClN3

> <PUBCHEM_MOLECULAR_WEIGHT>
365.9

> <PUBCHEM_OPENEYE_CAN_SMILES>
CC1=NN(C=C1C2=CC=CC=C2)C3CCN(CC3)CC4=CC(=CC=C4)Cl

> <PUBCHEM_OPENEYE_ISO_SMILES>
CC1=NN(C=C1C2=CC=CC=C2)C3CCN(CC3)CC4=CC(=CC=C4)Cl

> <PUBCHEM_CACTVS_TPSA>
21.1

> <PUBCHEM_MONOISOTOPIC_WEIGHT>
365.1658755

> <PUBCHEM_TOTAL_CHARGE>
0

> <PUBCHEM_HEAVY_ATOM_COUNT>
26

> <PUBCHEM_ATOM_DEF_STEREO_COUNT>
0

> <PUBCHEM_ATOM_UDEF_STEREO_COUNT>
0

> <PUBCHEM_BOND_DEF_STEREO_COUNT>
0

> <PUBCHEM_BOND_UDEF_STEREO_COUNT>
0

> <PUBCHEM_ISOTOPIC_ATOM_COUNT>
0

> <PUBCHEM_COMPONENT_COUNT>
1

> <PUBCHEM_CACTVS_TAUTO_COUNT>
-1

> <PUBCHEM_COORDINATE_TYPE>
1
5
255

> <PUBCHEM_BONDANNOTATIONS>
11  13  8
12  16  8
12  17  8
13  14  8
15  21  8
15  22  8
16  19  8
17  20  8
19  23  8
20  23  8
21  24  8
22  25  8
24  26  8
25  26  8
3  11  8
3  4  8
4  14  8

$$$$
