72700473
  -OEChem-09292322382D

 57 60  0     0  0  0  0  0  0999 V2000
    4.6783   -5.1907    0.0000 S   0  0  0  0  0  0  0  0  0  0  0  0
    9.7884    3.6911    0.0000 O   0  0  0  0  0  0  0  0  0  0  0  0
    5.6103   -0.7296    0.0000 N   0  0  0  0  0  0  0  0  0  0  0  0
    8.1421    4.2292    0.0000 N   0  0  0  0  0  0  0  0  0  0  0  0
    4.9889   -2.6307    0.0000 N   0  0  0  0  0  0  0  0  0  0  0  0
    5.2619   -4.3859    0.0000 N   0  0  0  0  0  0  0  0  0  0  0  0
    7.2101    1.3776    0.0000 C   0  0  0  0  0  0  0  0  0  0  0  0
    6.5422    2.1219    0.0000 C   0  0  0  0  0  0  0  0  0  0  0  0
    8.1886    1.5838    0.0000 C   0  0  0  0  0  0  0  0  0  0  0  0
    7.8314    3.2787    0.0000 C   0  0  0  0  0  0  0  0  0  0  0  0
    6.8994    0.4271    0.0000 C   0  0  0  0  0  0  0  0  0  0  0  0
    6.8529    3.0724    0.0000 C   0  0  0  0  0  0  0  0  0  0  0  0
    8.4993    2.5344    0.0000 C   0  0  0  0  0  0  0  0  0  0  0  0
    5.9209    0.2209    0.0000 C   0  0  0  0  0  0  0  0  0  0  0  0
    4.6318   -0.9359    0.0000 C   0  0  0  0  0  0  0  0  0  0  0  0
    6.2781   -1.4739    0.0000 C   0  0  0  0  0  0  0  0  0  0  0  0
    4.3211   -1.8864    0.0000 C   0  0  0  0  0  0  0  0  0  0  0  0
    5.9674   -2.4245    0.0000 C   0  0  0  0  0  0  0  0  0  0  0  0
    4.6783   -3.5812    0.0000 C   0  0  0  0  0  0  0  0  0  0  0  0
    9.1206    4.4354    0.0000 C   0  0  0  0  0  0  0  0  0  0  0  0
    3.7320   -3.8859    0.0000 C   0  0  0  0  0  0  0  0  0  0  0  0
    9.4312    5.3859    0.0000 C   0  0  0  0  0  0  0  0  0  0  0  0
    3.7320   -4.8859    0.0000 C   0  0  0  0  0  0  0  0  0  0  0  0
    2.8660   -3.3859    0.0000 C   0  0  0  0  0  0  0  0  0  0  0  0
    2.8660   -5.3859    0.0000 C   0  0  0  0  0  0  0  0  0  0  0  0
    2.0000   -3.8859    0.0000 C   0  0  0  0  0  0  0  0  0  0  0  0
    2.0000   -4.8859    0.0000 C   0  0  0  0  0  0  0  0  0  0  0  0
    7.6242    0.9162    0.0000 H   0  0  0  0  0  0  0  0  0  0  0  0
    5.9953    2.4140    0.0000 H   0  0  0  0  0  0  0  0  0  0  0  0
    6.1597    1.6340    0.0000 H   0  0  0  0  0  0  0  0  0  0  0  0
    8.2092    0.9642    0.0000 H   0  0  0  0  0  0  0  0  0  0  0  0
    8.8024    1.4965    0.0000 H   0  0  0  0  0  0  0  0  0  0  0  0
    8.4381    3.4065    0.0000 H   0  0  0  0  0  0  0  0  0  0  0  0
    6.9200   -0.1926    0.0000 H   0  0  0  0  0  0  0  0  0  0  0  0
    7.5132    0.3398    0.0000 H   0  0  0  0  0  0  0  0  0  0  0  0
    6.8323    3.6921    0.0000 H   0  0  0  0  0  0  0  0  0  0  0  0
    6.2391    3.1598    0.0000 H   0  0  0  0  0  0  0  0  0  0  0  0
    9.0462    2.2424    0.0000 H   0  0  0  0  0  0  0  0  0  0  0  0
    8.8818    3.0223    0.0000 H   0  0  0  0  0  0  0  0  0  0  0  0
    5.9004    0.8405    0.0000 H   0  0  0  0  0  0  0  0  0  0  0  0
    5.3071    0.3082    0.0000 H   0  0  0  0  0  0  0  0  0  0  0  0
    4.6112   -0.3162    0.0000 H   0  0  0  0  0  0  0  0  0  0  0  0
    4.0179   -0.8485    0.0000 H   0  0  0  0  0  0  0  0  0  0  0  0
    6.8250   -1.7660    0.0000 H   0  0  0  0  0  0  0  0  0  0  0  0
    6.6607   -0.9860    0.0000 H   0  0  0  0  0  0  0  0  0  0  0  0
    7.7280    4.6906    0.0000 H   0  0  0  0  0  0  0  0  0  0  0  0
    3.7742   -1.5944    0.0000 H   0  0  0  0  0  0  0  0  0  0  0  0
    3.9385   -2.3743    0.0000 H   0  0  0  0  0  0  0  0  0  0  0  0
    5.9880   -3.0441    0.0000 H   0  0  0  0  0  0  0  0  0  0  0  0
    6.5812   -2.5118    0.0000 H   0  0  0  0  0  0  0  0  0  0  0  0
   10.0206    5.1933    0.0000 H   0  0  0  0  0  0  0  0  0  0  0  0
    9.6238    5.9752    0.0000 H   0  0  0  0  0  0  0  0  0  0  0  0
    8.8419    5.5785    0.0000 H   0  0  0  0  0  0  0  0  0  0  0  0
    2.8660   -2.7659    0.0000 H   0  0  0  0  0  0  0  0  0  0  0  0
    2.8660   -6.0059    0.0000 H   0  0  0  0  0  0  0  0  0  0  0  0
    1.4631   -3.5759    0.0000 H   0  0  0  0  0  0  0  0  0  0  0  0
    1.4631   -5.1959    0.0000 H   0  0  0  0  0  0  0  0  0  0  0  0
  1  6  1  0  0  0  0
  1 23  1  0  0  0  0
  2 20  2  0  0  0  0
  3 14  1  0  0  0  0
  3 15  1  0  0  0  0
  3 16  1  0  0  0  0
  4 10  1  0  0  0  0
  4 20  1  0  0  0  0
  4 46  1  0  0  0  0
  5 17  1  0  0  0  0
  5 18  1  0  0  0  0
  5 19  1  0  0  0  0
  6 19  2  0  0  0  0
  7  8  1  0  0  0  0
  7  9  1  0  0  0  0
  7 11  1  0  0  0  0
  7 28  1  0  0  0  0
  8 12  1  0  0  0  0
  8 29  1  0  0  0  0
  8 30  1  0  0  0  0
  9 13  1  0  0  0  0
  9 31  1  0  0  0  0
  9 32  1  0  0  0  0
 10 12  1  0  0  0  0
 10 13  1  0  0  0  0
 10 33  1  0  0  0  0
 11 14  1  0  0  0  0
 11 34  1  0  0  0  0
 11 35  1  0  0  0  0
 12 36  1  0  0  0  0
 12 37  1  0  0  0  0
 13 38  1  0  0  0  0
 13 39  1  0  0  0  0
 14 40  1  0  0  0  0
 14 41  1  0  0  0  0
 15 17  1  0  0  0  0
 15 42  1  0  0  0  0
 15 43  1  0  0  0  0
 16 18  1  0  0  0  0
 16 44  1  0  0  0  0
 16 45  1  0  0  0  0
 17 47  1  0  0  0  0
 17 48  1  0  0  0  0
 18 49  1  0  0  0  0
 18 50  1  0  0  0  0
 19 21  1  0  0  0  0
 20 22  1  0  0  0  0
 21 23  1  0  0  0  0
 21 24  2  0  0  0  0
 22 51  1  0  0  0  0
 22 52  1  0  0  0  0
 22 53  1  0  0  0  0
 23 25  2  0  0  0  0
 24 26  1  0  0  0  0
 24 54  1  0  0  0  0
 25 27  1  0  0  0  0
 25 55  1  0  0  0  0
 26 27  2  0  0  0  0
 26 56  1  0  0  0  0
 27 57  1  0  0  0  0
M  END
> <PUBCHEM_COMPOUND_CID>
72700473

> <PUBCHEM_COMPOUND_CANONICALIZED>
1

> <PUBCHEM_CACTVS_COMPLEXITY>
489

> <PUBCHEM_CACTVS_HBOND_ACCEPTOR>
5

> <PUBCHEM_CACTVS_HBOND_DONOR>
1

> <PUBCHEM_CACTVS_ROTATABLE_BOND>
5

> <PUBCHEM_CACTVS_SUBSKEYS>
AAADceB7oABAAAAAAAAAAAAAAAAAAWAAAAA8YIAAAAAAAFgB8AAAHgQQQAAADSjB2gQzsdPAAACsAiNycACDABAhAABJmLgoRJiIYKLAmZGUIAxglgLIyAcQgIAOAAAAAAAEAAAQAAAAAAgAAAAAAAAAAA==

> <PUBCHEM_IUPAC_OPENEYE_NAME>
N-[4-[2-[4-(1,2-benzothiazol-3-yl)piperazin-1-yl]ethyl]cyclohexyl]acetamide

> <PUBCHEM_IUPAC_CAS_NAME>
N-[4-[2-[4-(1,2-benzothiazol-3-yl)-1-piperazinyl]ethyl]cyclohexyl]acetamide

> <PUBCHEM_IUPAC_NAME_MARKUP>
<I>N</I>-[4-[2-[4-(1,2-benzothiazol-3-yl)piperazin-1-yl]ethyl]cyclohexyl]acetamide

> <PUBCHEM_IUPAC_NAME>
N-[4-[2-[4-(1,2-benzothiazol-3-yl)piperazin-1-yl]ethyl]cyclohexyl]acetamide

> <PUBCHEM_IUPAC_SYSTEMATIC_NAME>
N-[4-[2-[4-(1,2-benzothiazol-3-yl)piperazin-1-yl]ethyl]cyclohexyl]ethanamide

> <PUBCHEM_IUPAC_TRADITIONAL_NAME>
N-[4-[2-[4-(1,2-benzothiazol-3-yl)piperazino]ethyl]cyclohexyl]acetamide

> <PUBCHEM_IUPAC_INCHI>
InChI=1S/C21H30N4OS/c1-16(26)22-18-8-6-17(7-9-18)10-11-24-12-14-25(15-13-24)21-19-4-2-3-5-20(19)27-23-21/h2-5,17-18H,6-15H2,1H3,(H,22,26)

> <PUBCHEM_IUPAC_INCHIKEY>
MNXNYFBCTGEMEN-UHFFFAOYSA-N

> <PUBCHEM_XLOGP3_AA>
3.8

> <PUBCHEM_EXACT_MASS>
386.21403277

> <PUBCHEM_MOLECULAR_FORMULA>
C21H30N4OS

> <PUBCHEM_MOLECULAR_WEIGHT>
386.6

> <PUBCHEM_OPENEYE_CAN_SMILES>
CC(=O)NC1CCC(CC1)CCN2CCN(CC2)C3=NSC4=CC=CC=C43

> <PUBCHEM_OPENEYE_ISO_SMILES>
CC(=O)NC1CCC(CC1)CCN2CCN(CC2)C3=NSC4=CC=CC=C43

> <PUBCHEM_CACTVS_TPSA>
76.7

> <PUBCHEM_MONOISOTOPIC_WEIGHT>
386.21403277

> <PUBCHEM_TOTAL_CHARGE>
0

> <PUBCHEM_HEAVY_ATOM_COUNT>
27

> <PUBCHEM_ATOM_DEF_STEREO_COUNT>
0

> <PUBCHEM_ATOM_UDEF_STEREO_COUNT>
0

> <PUBCHEM_BOND_DEF_STEREO_COUNT>
0

> <PUBCHEM_BOND_UDEF_STEREO_COUNT>
0

> <PUBCHEM_ISOTOPIC_ATOM_COUNT>
0

> <PUBCHEM_COMPONENT_COUNT>
1

> <PUBCHEM_CACTVS_TAUTO_COUNT>
-1

> <PUBCHEM_COORDINATE_TYPE>
1
5
255

> <PUBCHEM_BONDANNOTATIONS>
1  23  8
1  6  8
19  21  8
21  23  8
21  24  8
23  25  8
24  26  8
25  27  8
26  27  8
6  19  8

$$$$
