127051516
  -OEChem-09292322372D

 58 62  0     1  0  0  0  0  0999 V2000
    4.6783   -3.0018    0.0000 S   0  0  0  0  0  0  0  0  0  0  0  0
   11.5406   -2.2251    0.0000 O   0  0  0  0  0  0  0  0  0  0  0  0
   11.8497    0.3439    0.0000 N   0  0  3  0  0  0  0  0  0  0  0  0
    9.2619   -0.4651    0.0000 N   0  0  0  0  0  0  0  0  0  0  0  0
   12.8007   -0.9651    0.0000 N   0  0  0  0  0  0  0  0  0  0  0  0
    4.6783   -1.3924    0.0000 N   0  0  0  0  0  0  0  0  0  0  0  0
   11.2619   -0.4651    0.0000 C   0  0  0  0  0  0  0  0  0  0  0  0
   10.7619    0.4010    0.0000 C   0  0  0  0  0  0  0  0  0  0  0  0
   10.7619   -1.3311    0.0000 C   0  0  0  0  0  0  0  0  0  0  0  0
    9.7619    0.4010    0.0000 C   0  0  0  0  0  0  0  0  0  0  0  0
    9.7619   -1.3311    0.0000 C   0  0  0  0  0  0  0  0  0  0  0  0
   11.8497   -1.2741    0.0000 C   0  0  0  0  0  0  0  0  0  0  0  0
   12.8007    0.0349    0.0000 C   0  0  0  0  0  0  0  0  0  0  0  0
    8.2619   -0.4651    0.0000 C   0  0  0  0  0  0  0  0  0  0  0  0
   11.5406    1.2950    0.0000 C   0  0  0  0  0  0  0  0  0  0  0  0
    7.7619   -1.3311    0.0000 C   0  0  0  0  0  0  0  0  0  0  0  0
    6.7619   -1.3311    0.0000 C   0  0  0  0  0  0  0  0  0  0  0  0
   10.5625    1.5029    0.0000 C   0  0  0  0  0  0  0  0  0  0  0  0
   12.2098    2.0382    0.0000 C   0  0  0  0  0  0  0  0  0  0  0  0
    6.2619   -2.1971    0.0000 C   0  0  0  0  0  0  0  0  0  0  0  0
   10.2535    2.4540    0.0000 C   0  0  0  0  0  0  0  0  0  0  0  0
   11.9008    2.9892    0.0000 C   0  0  0  0  0  0  0  0  0  0  0  0
   10.9226    3.1971    0.0000 C   0  0  0  0  0  0  0  0  0  0  0  0
    5.2619   -2.1971    0.0000 C   0  0  0  0  0  0  0  0  0  0  0  0
    3.7320   -2.6971    0.0000 C   0  0  0  0  0  0  0  0  0  0  0  0
    3.7320   -1.6971    0.0000 C   0  0  0  0  0  0  0  0  0  0  0  0
    2.8660   -3.1971    0.0000 C   0  0  0  0  0  0  0  0  0  0  0  0
    2.8660   -1.1971    0.0000 C   0  0  0  0  0  0  0  0  0  0  0  0
    2.0000   -2.6971    0.0000 C   0  0  0  0  0  0  0  0  0  0  0  0
    2.0000   -1.6971    0.0000 C   0  0  0  0  0  0  0  0  0  0  0  0
   11.3445    0.6130    0.0000 H   0  0  0  0  0  0  0  0  0  0  0  0
   10.6542    1.0115    0.0000 H   0  0  0  0  0  0  0  0  0  0  0  0
   10.6542   -1.9417    0.0000 H   0  0  0  0  0  0  0  0  0  0  0  0
   11.3445   -1.5432    0.0000 H   0  0  0  0  0  0  0  0  0  0  0  0
    9.8695    1.0115    0.0000 H   0  0  0  0  0  0  0  0  0  0  0  0
    9.1793    0.6130    0.0000 H   0  0  0  0  0  0  0  0  0  0  0  0
    9.1793   -1.5432    0.0000 H   0  0  0  0  0  0  0  0  0  0  0  0
    9.8695   -1.9417    0.0000 H   0  0  0  0  0  0  0  0  0  0  0  0
   13.4173   -0.0299    0.0000 H   0  0  0  0  0  0  0  0  0  0  0  0
   12.9296    0.6414    0.0000 H   0  0  0  0  0  0  0  0  0  0  0  0
   13.3023   -1.3295    0.0000 H   0  0  0  0  0  0  0  0  0  0  0  0
    8.3695    0.1455    0.0000 H   0  0  0  0  0  0  0  0  0  0  0  0
    7.6793   -0.2530    0.0000 H   0  0  0  0  0  0  0  0  0  0  0  0
    7.6542   -1.9417    0.0000 H   0  0  0  0  0  0  0  0  0  0  0  0
    8.3445   -1.5432    0.0000 H   0  0  0  0  0  0  0  0  0  0  0  0
    6.8695   -0.7205    0.0000 H   0  0  0  0  0  0  0  0  0  0  0  0
    6.1793   -1.1190    0.0000 H   0  0  0  0  0  0  0  0  0  0  0  0
   10.1476    1.0422    0.0000 H   0  0  0  0  0  0  0  0  0  0  0  0
   12.8162    1.9092    0.0000 H   0  0  0  0  0  0  0  0  0  0  0  0
    6.1542   -2.8077    0.0000 H   0  0  0  0  0  0  0  0  0  0  0  0
    6.8445   -2.4092    0.0000 H   0  0  0  0  0  0  0  0  0  0  0  0
    9.6470    2.5829    0.0000 H   0  0  0  0  0  0  0  0  0  0  0  0
   12.3156    3.4500    0.0000 H   0  0  0  0  0  0  0  0  0  0  0  0
   10.7310    3.7868    0.0000 H   0  0  0  0  0  0  0  0  0  0  0  0
    2.8660   -3.8171    0.0000 H   0  0  0  0  0  0  0  0  0  0  0  0
    2.8660   -0.5771    0.0000 H   0  0  0  0  0  0  0  0  0  0  0  0
    1.4631   -3.0071    0.0000 H   0  0  0  0  0  0  0  0  0  0  0  0
    1.4631   -1.3871    0.0000 H   0  0  0  0  0  0  0  0  0  0  0  0
  1 24  1  0  0  0  0
  1 25  1  0  0  0  0
  2 12  2  0  0  0  0
  3  7  1  0  0  0  0
  3 13  1  0  0  0  0
  3 15  1  0  0  0  0
  4 10  1  0  0  0  0
  4 11  1  0  0  0  0
  4 14  1  0  0  0  0
  5 12  1  0  0  0  0
  5 13  1  0  0  0  0
  5 41  1  0  0  0  0
  6 24  2  0  0  0  0
  6 26  1  0  0  0  0
  7  8  1  0  0  0  0
  7  9  1  0  0  0  0
  7 12  1  0  0  0  0
  8 10  1  0  0  0  0
  8 31  1  0  0  0  0
  8 32  1  0  0  0  0
  9 11  1  0  0  0  0
  9 33  1  0  0  0  0
  9 34  1  0  0  0  0
 10 35  1  0  0  0  0
 10 36  1  0  0  0  0
 11 37  1  0  0  0  0
 11 38  1  0  0  0  0
 13 39  1  0  0  0  0
 13 40  1  0  0  0  0
 14 16  1  0  0  0  0
 14 42  1  0  0  0  0
 14 43  1  0  0  0  0
 15 18  2  0  0  0  0
 15 19  1  0  0  0  0
 16 17  1  0  0  0  0
 16 44  1  0  0  0  0
 16 45  1  0  0  0  0
 17 20  1  0  0  0  0
 17 46  1  0  0  0  0
 17 47  1  0  0  0  0
 18 21  1  0  0  0  0
 18 48  1  0  0  0  0
 19 22  2  0  0  0  0
 19 49  1  0  0  0  0
 20 24  1  0  0  0  0
 20 50  1  0  0  0  0
 20 51  1  0  0  0  0
 21 23  2  0  0  0  0
 21 52  1  0  0  0  0
 22 23  1  0  0  0  0
 22 53  1  0  0  0  0
 23 54  1  0  0  0  0
 25 26  1  0  0  0  0
 25 27  2  0  0  0  0
 26 28  2  0  0  0  0
 27 29  1  0  0  0  0
 27 55  1  0  0  0  0
 28 30  1  0  0  0  0
 28 56  1  0  0  0  0
 29 30  2  0  0  0  0
 29 57  1  0  0  0  0
 30 58  1  0  0  0  0
M  END
> <PUBCHEM_COMPOUND_CID>
127051516

> <PUBCHEM_COMPOUND_CANONICALIZED>
1

> <PUBCHEM_CACTVS_COMPLEXITY>
588

> <PUBCHEM_CACTVS_HBOND_ACCEPTOR>
5

> <PUBCHEM_CACTVS_HBOND_DONOR>
1

> <PUBCHEM_CACTVS_ROTATABLE_BOND>
6

> <PUBCHEM_CACTVS_SUBSKEYS>
AAADceB7oABAAAAAAAAAAAAAAAAAAWLAAAA8YIAAAAAAAFgB9AAAHgQQAAAADIjB1gQxwbPIEAisASVyVACD8KBhCjhImL24ZJiIYLLg0bGUIAhogwLoyCcUAAAKAAAAAAAAAQAAAAAAAAACAAAAAAAAAA==

> <PUBCHEM_IUPAC_OPENEYE_NAME>
8-[4-(1,3-benzothiazol-2-yl)butyl]-1-phenyl-1,3,8-triazaspiro[4.5]decan-4-one

> <PUBCHEM_IUPAC_CAS_NAME>
8-[4-(1,3-benzothiazol-2-yl)butyl]-1-phenyl-1,3,8-triazaspiro[4.5]decan-4-one

> <PUBCHEM_IUPAC_NAME_MARKUP>
8-[4-(1,3-benzothiazol-2-yl)butyl]-1-phenyl-1,3,8-triazaspiro[4.5]decan-4-one

> <PUBCHEM_IUPAC_NAME>
8-[4-(1,3-benzothiazol-2-yl)butyl]-1-phenyl-1,3,8-triazaspiro[4.5]decan-4-one

> <PUBCHEM_IUPAC_SYSTEMATIC_NAME>
8-[4-(1,3-benzothiazol-2-yl)butyl]-1-phenyl-1,3,8-triazaspiro[4.5]decan-4-one

> <PUBCHEM_IUPAC_TRADITIONAL_NAME>
8-[4-(1,3-benzothiazol-2-yl)butyl]-1-phenyl-1,3,8-triazaspiro[4.5]decan-4-one

> <PUBCHEM_IUPAC_INCHI>
InChI=1S/C24H28N4OS/c29-23-24(28(18-25-23)19-8-2-1-3-9-19)13-16-27(17-14-24)15-7-6-12-22-26-20-10-4-5-11-21(20)30-22/h1-5,8-11H,6-7,12-18H2,(H,25,29)

> <PUBCHEM_IUPAC_INCHIKEY>
AVKICTLBRHZUTM-UHFFFAOYSA-N

> <PUBCHEM_XLOGP3_AA>
4.8

> <PUBCHEM_EXACT_MASS>
420.19838270

> <PUBCHEM_MOLECULAR_FORMULA>
C24H28N4OS

> <PUBCHEM_MOLECULAR_WEIGHT>
420.6

> <PUBCHEM_OPENEYE_CAN_SMILES>
C1CN(CCC12C(=O)NCN2C3=CC=CC=C3)CCCCC4=NC5=CC=CC=C5S4

> <PUBCHEM_OPENEYE_ISO_SMILES>
C1CN(CCC12C(=O)NCN2C3=CC=CC=C3)CCCCC4=NC5=CC=CC=C5S4

> <PUBCHEM_CACTVS_TPSA>
76.7

> <PUBCHEM_MONOISOTOPIC_WEIGHT>
420.19838270

> <PUBCHEM_TOTAL_CHARGE>
0

> <PUBCHEM_HEAVY_ATOM_COUNT>
30

> <PUBCHEM_ATOM_DEF_STEREO_COUNT>
0

> <PUBCHEM_ATOM_UDEF_STEREO_COUNT>
0

> <PUBCHEM_BOND_DEF_STEREO_COUNT>
0

> <PUBCHEM_BOND_UDEF_STEREO_COUNT>
0

> <PUBCHEM_ISOTOPIC_ATOM_COUNT>
0

> <PUBCHEM_COMPONENT_COUNT>
1

> <PUBCHEM_CACTVS_TAUTO_COUNT>
-1

> <PUBCHEM_COORDINATE_TYPE>
1
5
255

> <PUBCHEM_BONDANNOTATIONS>
1  24  8
1  25  8
15  18  8
15  19  8
18  21  8
19  22  8
21  23  8
22  23  8
25  26  8
25  27  8
26  28  8
27  29  8
28  30  8
29  30  8
6  24  8
6  26  8

$$$$
