44405490
  -OEChem-09292322272D

 51 54  0     1  0  0  0  0  0999 V2000
    3.4782   -6.1011    0.0000 S   0  0  0  0  0  0  0  0  0  0  0  0
    5.2348    6.3090    0.0000 F   0  0  0  0  0  0  0  0  0  0  0  0
    6.5551    5.8022    0.0000 F   0  0  0  0  0  0  0  0  0  0  0  0
    4.7280    4.9887    0.0000 F   0  0  0  0  0  0  0  0  0  0  0  0
    4.4487   -1.6066    0.0000 O   0  0  0  0  0  0  0  0  0  0  0  0
    6.6808    0.9323    0.0000 N   0  0  3  0  0  0  0  0  0  0  0  0
    6.1808   -1.6066    0.0000 N   0  0  0  0  0  0  0  0  0  0  0  0
    6.1808   -0.6066    0.0000 C   0  0  1  0  0  0  0  0  0  0  0  0
    5.3717   -0.0188    0.0000 C   0  0  0  0  0  0  0  0  0  0  0  0
    6.9898   -0.0188    0.0000 C   0  0  0  0  0  0  0  0  0  0  0  0
    5.6808    0.9323    0.0000 C   0  0  0  0  0  0  0  0  0  0  0  0
    7.2685    1.7413    0.0000 C   0  0  0  0  0  0  0  0  0  0  0  0
    6.8618    2.6548    0.0000 C   0  0  0  0  0  0  0  0  0  0  0  0
    5.3147   -2.1066    0.0000 C   0  0  0  0  0  0  0  0  0  0  0  0
    5.8673    2.7594    0.0000 C   0  0  0  0  0  0  0  0  0  0  0  0
    7.4496    3.4638    0.0000 C   0  0  0  0  0  0  0  0  0  0  0  0
    5.3147   -3.1066    0.0000 C   0  0  0  0  0  0  0  0  0  0  0  0
    5.4605    3.6729    0.0000 C   0  0  0  0  0  0  0  0  0  0  0  0
    7.0428    4.3774    0.0000 C   0  0  0  0  0  0  0  0  0  0  0  0
    6.0483    4.4819    0.0000 C   0  0  0  0  0  0  0  0  0  0  0  0
    4.4487   -3.6066    0.0000 C   0  0  0  0  0  0  0  0  0  0  0  0
    6.1808   -3.6066    0.0000 C   0  0  0  0  0  0  0  0  0  0  0  0
    4.4487   -4.6066    0.0000 C   0  0  0  0  0  0  0  0  0  0  0  0
    5.6416    5.3955    0.0000 C   0  0  0  0  0  0  0  0  0  0  0  0
    6.1808   -4.6066    0.0000 C   0  0  0  0  0  0  0  0  0  0  0  0
    5.3147   -5.1066    0.0000 C   0  0  0  0  0  0  0  0  0  0  0  0
    3.5827   -5.1066    0.0000 C   0  0  0  0  0  0  0  0  0  0  0  0
    2.6691   -4.6998    0.0000 C   0  0  0  0  0  0  0  0  0  0  0  0
    2.0000   -5.4430    0.0000 C   0  0  0  0  0  0  0  0  0  0  0  0
    2.5000   -6.3090    0.0000 C   0  0  0  0  0  0  0  0  0  0  0  0
    6.7332   -0.8880    0.0000 H   0  0  0  0  0  0  0  0  0  0  0  0
    4.8053    0.2334    0.0000 H   0  0  0  0  0  0  0  0  0  0  0  0
    5.0617   -0.5557    0.0000 H   0  0  0  0  0  0  0  0  0  0  0  0
    7.2998   -0.5557    0.0000 H   0  0  0  0  0  0  0  0  0  0  0  0
    7.5562    0.2334    0.0000 H   0  0  0  0  0  0  0  0  0  0  0  0
    5.7456    1.5489    0.0000 H   0  0  0  0  0  0  0  0  0  0  0  0
    5.0743    1.0612    0.0000 H   0  0  0  0  0  0  0  0  0  0  0  0
    7.6992    1.2953    0.0000 H   0  0  0  0  0  0  0  0  0  0  0  0
    7.7825    2.0880    0.0000 H   0  0  0  0  0  0  0  0  0  0  0  0
    6.7177   -1.9166    0.0000 H   0  0  0  0  0  0  0  0  0  0  0  0
    5.5028    2.2578    0.0000 H   0  0  0  0  0  0  0  0  0  0  0  0
    8.0662    3.3990    0.0000 H   0  0  0  0  0  0  0  0  0  0  0  0
    4.8439    3.7377    0.0000 H   0  0  0  0  0  0  0  0  0  0  0  0
    7.4073    4.8790    0.0000 H   0  0  0  0  0  0  0  0  0  0  0  0
    3.9118   -3.2966    0.0000 H   0  0  0  0  0  0  0  0  0  0  0  0
    6.7177   -3.2966    0.0000 H   0  0  0  0  0  0  0  0  0  0  0  0
    6.7177   -4.9166    0.0000 H   0  0  0  0  0  0  0  0  0  0  0  0
    5.3147   -5.7266    0.0000 H   0  0  0  0  0  0  0  0  0  0  0  0
    2.5402   -4.0934    0.0000 H   0  0  0  0  0  0  0  0  0  0  0  0
    1.3834   -5.3782    0.0000 H   0  0  0  0  0  0  0  0  0  0  0  0
    2.2478   -6.8754    0.0000 H   0  0  0  0  0  0  0  0  0  0  0  0
  1 27  1  0  0  0  0
  1 30  1  0  0  0  0
  2 24  1  0  0  0  0
  3 24  1  0  0  0  0
  4 24  1  0  0  0  0
  5 14  2  0  0  0  0
  6 10  1  0  0  0  0
  6 11  1  0  0  0  0
  6 12  1  0  0  0  0
  8  7  1  1  0  0  0
  7 14  1  0  0  0  0
  7 40  1  0  0  0  0
  8  9  1  0  0  0  0
  8 10  1  0  0  0  0
  8 31  1  0  0  0  0
  9 11  1  0  0  0  0
  9 32  1  0  0  0  0
  9 33  1  0  0  0  0
 10 34  1  0  0  0  0
 10 35  1  0  0  0  0
 11 36  1  0  0  0  0
 11 37  1  0  0  0  0
 12 13  1  0  0  0  0
 12 38  1  0  0  0  0
 12 39  1  0  0  0  0
 13 15  2  0  0  0  0
 13 16  1  0  0  0  0
 14 17  1  0  0  0  0
 15 18  1  0  0  0  0
 15 41  1  0  0  0  0
 16 19  2  0  0  0  0
 16 42  1  0  0  0  0
 17 21  1  0  0  0  0
 17 22  2  0  0  0  0
 18 20  2  0  0  0  0
 18 43  1  0  0  0  0
 19 20  1  0  0  0  0
 19 44  1  0  0  0  0
 20 24  1  0  0  0  0
 21 23  2  0  0  0  0
 21 45  1  0  0  0  0
 22 25  1  0  0  0  0
 22 46  1  0  0  0  0
 23 26  1  0  0  0  0
 23 27  1  0  0  0  0
 25 26  2  0  0  0  0
 25 47  1  0  0  0  0
 26 48  1  0  0  0  0
 27 28  2  0  0  0  0
 28 29  1  0  0  0  0
 28 49  1  0  0  0  0
 29 30  2  0  0  0  0
 29 50  1  0  0  0  0
 30 51  1  0  0  0  0
M  END
> <PUBCHEM_COMPOUND_CID>
44405490

> <PUBCHEM_COMPOUND_CANONICALIZED>
1

> <PUBCHEM_CACTVS_COMPLEXITY>
579

> <PUBCHEM_CACTVS_HBOND_ACCEPTOR>
6

> <PUBCHEM_CACTVS_HBOND_DONOR>
1

> <PUBCHEM_CACTVS_ROTATABLE_BOND>
5

> <PUBCHEM_CACTVS_SUBSKEYS>
AAADceB7IYBAAAAAAAAAAAAAAAAAAWJAAAAwYAAAAAAAAAAB0AAAHwQQAAAADCjF2BSwAYPAAAiMAiFSEACDAIAkCBBIiJkIBMgIYDKg1RGUIQhglgCoiYcYiMCOQAACAAAAAACAAAQAAAAAAAAAAAAAAA==

> <PUBCHEM_IUPAC_OPENEYE_NAME>
3-(2-thienyl)-N-[(3S)-1-[[4-(trifluoromethyl)phenyl]methyl]pyrrolidin-3-yl]benzamide

> <PUBCHEM_IUPAC_CAS_NAME>
3-thiophen-2-yl-N-[(3S)-1-[[4-(trifluoromethyl)phenyl]methyl]-3-pyrrolidinyl]benzamide

> <PUBCHEM_IUPAC_NAME_MARKUP>
3-thiophen-2-yl-<I>N</I>-[(3<I>S</I>)-1-[[4-(trifluoromethyl)phenyl]methyl]pyrrolidin-3-yl]benzamide

> <PUBCHEM_IUPAC_NAME>
3-thiophen-2-yl-N-[(3S)-1-[[4-(trifluoromethyl)phenyl]methyl]pyrrolidin-3-yl]benzamide

> <PUBCHEM_IUPAC_SYSTEMATIC_NAME>
3-thiophen-2-yl-N-[(3S)-1-[[4-(trifluoromethyl)phenyl]methyl]pyrrolidin-3-yl]benzamide

> <PUBCHEM_IUPAC_TRADITIONAL_NAME>
3-(2-thienyl)-N-[(3S)-1-[4-(trifluoromethyl)benzyl]pyrrolidin-3-yl]benzamide

> <PUBCHEM_IUPAC_INCHI>
InChI=1S/C23H21F3N2OS/c24-23(25,26)19-8-6-16(7-9-19)14-28-11-10-20(15-28)27-22(29)18-4-1-3-17(13-18)21-5-2-12-30-21/h1-9,12-13,20H,10-11,14-15H2,(H,27,29)/t20-/m0/s1

> <PUBCHEM_IUPAC_INCHIKEY>
AWAXPOLEGZALIG-FQEVSTJZSA-N

> <PUBCHEM_XLOGP3_AA>
5.2

> <PUBCHEM_EXACT_MASS>
430.13266896

> <PUBCHEM_MOLECULAR_FORMULA>
C23H21F3N2OS

> <PUBCHEM_MOLECULAR_WEIGHT>
430.5

> <PUBCHEM_OPENEYE_CAN_SMILES>
C1CN(CC1NC(=O)C2=CC=CC(=C2)C3=CC=CS3)CC4=CC=C(C=C4)C(F)(F)F

> <PUBCHEM_OPENEYE_ISO_SMILES>
C1CN(C[C@H]1NC(=O)C2=CC=CC(=C2)C3=CC=CS3)CC4=CC=C(C=C4)C(F)(F)F

> <PUBCHEM_CACTVS_TPSA>
60.6

> <PUBCHEM_MONOISOTOPIC_WEIGHT>
430.13266896

> <PUBCHEM_TOTAL_CHARGE>
0

> <PUBCHEM_HEAVY_ATOM_COUNT>
30

> <PUBCHEM_ATOM_DEF_STEREO_COUNT>
1

> <PUBCHEM_ATOM_UDEF_STEREO_COUNT>
0

> <PUBCHEM_BOND_DEF_STEREO_COUNT>
0

> <PUBCHEM_BOND_UDEF_STEREO_COUNT>
0

> <PUBCHEM_ISOTOPIC_ATOM_COUNT>
0

> <PUBCHEM_COMPONENT_COUNT>
1

> <PUBCHEM_CACTVS_TAUTO_COUNT>
-1

> <PUBCHEM_COORDINATE_TYPE>
1
5
255

> <PUBCHEM_BONDANNOTATIONS>
1  27  8
1  30  8
13  15  8
13  16  8
15  18  8
16  19  8
17  21  8
17  22  8
18  20  8
19  20  8
21  23  8
22  25  8
23  26  8
25  26  8
27  28  8
28  29  8
29  30  8
8  7  5

$$$$
