11292933
  -OEChem-09292322312D

 60 64  0     0  0  0  0  0  0999 V2000
    4.2213    5.5466    0.0000 O   0  0  0  0  0  0  0  0  0  0  0  0
    6.1808   -0.6171    0.0000 N   0  0  0  0  0  0  0  0  0  0  0  0
    6.1808   -2.6171    0.0000 N   0  0  0  0  0  0  0  0  0  0  0  0
    3.5827    3.8829    0.0000 N   0  0  0  0  0  0  0  0  0  0  0  0
    2.5000    5.0854    0.0000 N   0  0  0  0  0  0  0  0  0  0  0  0
    7.9407   -5.6518    0.0000 N   0  0  0  0  0  0  0  0  0  0  0  0
    5.3147   -1.1171    0.0000 C   0  0  0  0  0  0  0  0  0  0  0  0
    7.0468   -1.1171    0.0000 C   0  0  0  0  0  0  0  0  0  0  0  0
    5.3147   -2.1171    0.0000 C   0  0  0  0  0  0  0  0  0  0  0  0
    7.0468   -2.1171    0.0000 C   0  0  0  0  0  0  0  0  0  0  0  0
    6.1808    0.3829    0.0000 C   0  0  0  0  0  0  0  0  0  0  0  0
    5.3147    0.8829    0.0000 C   0  0  0  0  0  0  0  0  0  0  0  0
    6.1808   -3.6171    0.0000 C   0  0  0  0  0  0  0  0  0  0  0  0
    5.3147    1.8829    0.0000 C   0  0  0  0  0  0  0  0  0  0  0  0
    7.0468   -4.1171    0.0000 C   0  0  0  0  0  0  0  0  0  0  0  0
    5.3147   -4.1171    0.0000 C   0  0  0  0  0  0  0  0  0  0  0  0
    4.4487    2.3829    0.0000 C   0  0  0  0  0  0  0  0  0  0  0  0
    4.4487    3.3829    0.0000 C   0  0  0  0  0  0  0  0  0  0  0  0
    7.0468   -5.1171    0.0000 C   0  0  0  0  0  0  0  0  0  0  0  0
    6.1808    2.3829    0.0000 C   0  0  0  0  0  0  0  0  0  0  0  0
    2.6691    3.4762    0.0000 C   0  0  0  0  0  0  0  0  0  0  0  0
    7.9407   -3.5824    0.0000 C   0  0  0  0  0  0  0  0  0  0  0  0
    5.3147   -5.1171    0.0000 C   0  0  0  0  0  0  0  0  0  0  0  0
    2.0000    4.2193    0.0000 C   0  0  0  0  0  0  0  0  0  0  0  0
    6.1808   -5.6171    0.0000 C   0  0  0  0  0  0  0  0  0  0  0  0
    5.3147    3.8829    0.0000 C   0  0  0  0  0  0  0  0  0  0  0  0
    6.1808    3.3829    0.0000 C   0  0  0  0  0  0  0  0  0  0  0  0
    3.4782    4.8774    0.0000 C   0  0  0  0  0  0  0  0  0  0  0  0
    8.8468   -4.0963    0.0000 C   0  0  0  0  0  0  0  0  0  0  0  0
    8.8468   -5.1379    0.0000 C   0  0  0  0  0  0  0  0  0  0  0  0
    9.7109   -5.6412    0.0000 C   0  0  0  0  0  0  0  0  0  0  0  0
    5.1027   -0.5345    0.0000 H   0  0  0  0  0  0  0  0  0  0  0  0
    4.7042   -1.2248    0.0000 H   0  0  0  0  0  0  0  0  0  0  0  0
    7.6574   -1.2248    0.0000 H   0  0  0  0  0  0  0  0  0  0  0  0
    7.2588   -0.5345    0.0000 H   0  0  0  0  0  0  0  0  0  0  0  0
    4.7042   -2.0094    0.0000 H   0  0  0  0  0  0  0  0  0  0  0  0
    5.1027   -2.6997    0.0000 H   0  0  0  0  0  0  0  0  0  0  0  0
    7.2588   -2.6997    0.0000 H   0  0  0  0  0  0  0  0  0  0  0  0
    7.6574   -2.0094    0.0000 H   0  0  0  0  0  0  0  0  0  0  0  0
    6.7913    0.2753    0.0000 H   0  0  0  0  0  0  0  0  0  0  0  0
    6.3928    0.9655    0.0000 H   0  0  0  0  0  0  0  0  0  0  0  0
    4.7042    0.9906    0.0000 H   0  0  0  0  0  0  0  0  0  0  0  0
    5.1027    0.3003    0.0000 H   0  0  0  0  0  0  0  0  0  0  0  0
    4.7778   -3.8071    0.0000 H   0  0  0  0  0  0  0  0  0  0  0  0
    3.9118    2.0729    0.0000 H   0  0  0  0  0  0  0  0  0  0  0  0
    6.7177    2.0729    0.0000 H   0  0  0  0  0  0  0  0  0  0  0  0
    2.1675    3.1117    0.0000 H   0  0  0  0  0  0  0  0  0  0  0  0
    2.9791    2.9392    0.0000 H   0  0  0  0  0  0  0  0  0  0  0  0
    7.9336   -2.9625    0.0000 H   0  0  0  0  0  0  0  0  0  0  0  0
    4.7778   -5.4271    0.0000 H   0  0  0  0  0  0  0  0  0  0  0  0
    1.4984    4.5838    0.0000 H   0  0  0  0  0  0  0  0  0  0  0  0
    1.5851    3.7586    0.0000 H   0  0  0  0  0  0  0  0  0  0  0  0
    6.1808   -6.2371    0.0000 H   0  0  0  0  0  0  0  0  0  0  0  0
    5.3147    4.5029    0.0000 H   0  0  0  0  0  0  0  0  0  0  0  0
    6.7177    3.6929    0.0000 H   0  0  0  0  0  0  0  0  0  0  0  0
    2.2478    5.6518    0.0000 H   0  0  0  0  0  0  0  0  0  0  0  0
    9.3825   -3.7842    0.0000 H   0  0  0  0  0  0  0  0  0  0  0  0
    9.3988   -6.1770    0.0000 H   0  0  0  0  0  0  0  0  0  0  0  0
   10.2466   -5.9533    0.0000 H   0  0  0  0  0  0  0  0  0  0  0  0
   10.0229   -5.1055    0.0000 H   0  0  0  0  0  0  0  0  0  0  0  0
  1 28  2  0  0  0  0
  2  7  1  0  0  0  0
  2  8  1  0  0  0  0
  2 11  1  0  0  0  0
  3  9  1  0  0  0  0
  3 10  1  0  0  0  0
  3 13  1  0  0  0  0
  4 18  1  0  0  0  0
  4 21  1  0  0  0  0
  4 28  1  0  0  0  0
  5 24  1  0  0  0  0
  5 28  1  0  0  0  0
  5 56  1  0  0  0  0
  6 19  1  0  0  0  0
  6 30  2  0  0  0  0
  7  9  1  0  0  0  0
  7 32  1  0  0  0  0
  7 33  1  0  0  0  0
  8 10  1  0  0  0  0
  8 34  1  0  0  0  0
  8 35  1  0  0  0  0
  9 36  1  0  0  0  0
  9 37  1  0  0  0  0
 10 38  1  0  0  0  0
 10 39  1  0  0  0  0
 11 12  1  0  0  0  0
 11 40  1  0  0  0  0
 11 41  1  0  0  0  0
 12 14  1  0  0  0  0
 12 42  1  0  0  0  0
 12 43  1  0  0  0  0
 13 15  1  0  0  0  0
 13 16  2  0  0  0  0
 14 17  2  0  0  0  0
 14 20  1  0  0  0  0
 15 19  2  0  0  0  0
 15 22  1  0  0  0  0
 16 23  1  0  0  0  0
 16 44  1  0  0  0  0
 17 18  1  0  0  0  0
 17 45  1  0  0  0  0
 18 26  2  0  0  0  0
 19 25  1  0  0  0  0
 20 27  2  0  0  0  0
 20 46  1  0  0  0  0
 21 24  1  0  0  0  0
 21 47  1  0  0  0  0
 21 48  1  0  0  0  0
 22 29  2  0  0  0  0
 22 49  1  0  0  0  0
 23 25  2  0  0  0  0
 23 50  1  0  0  0  0
 24 51  1  0  0  0  0
 24 52  1  0  0  0  0
 25 53  1  0  0  0  0
 26 27  1  0  0  0  0
 26 54  1  0  0  0  0
 27 55  1  0  0  0  0
 29 30  1  0  0  0  0
 29 57  1  0  0  0  0
 30 31  1  0  0  0  0
 31 58  1  0  0  0  0
 31 59  1  0  0  0  0
 31 60  1  0  0  0  0
M  END
> <PUBCHEM_COMPOUND_CID>
11292933

> <PUBCHEM_COMPOUND_CANONICALIZED>
1

> <PUBCHEM_CACTVS_COMPLEXITY>
607

> <PUBCHEM_CACTVS_HBOND_ACCEPTOR>
4

> <PUBCHEM_CACTVS_HBOND_DONOR>
1

> <PUBCHEM_CACTVS_ROTATABLE_BOND>
5

> <PUBCHEM_CACTVS_SUBSKEYS>
AAADceB7oAAAAAAAAAAAAAAAAAAAAWAAAAA8eIEAAAAAAACx9AAAHgAQAAAADAjBHgQzwPPIEACoAyRiVACCgCAhAiAImKA4ZJiIYOLA0dGUJAholgLIyCcQgIAOAAAAQAQCAAAAAACACAQAAAAAAAAAAA==

> <PUBCHEM_IUPAC_OPENEYE_NAME>
1-[3-[2-[4-(2-methyl-5-quinolyl)piperazin-1-yl]ethyl]phenyl]imidazolidin-2-one

> <PUBCHEM_IUPAC_CAS_NAME>
1-[3-[2-[4-(2-methyl-5-quinolinyl)-1-piperazinyl]ethyl]phenyl]-2-imidazolidinone

> <PUBCHEM_IUPAC_NAME_MARKUP>
1-[3-[2-[4-(2-methylquinolin-5-yl)piperazin-1-yl]ethyl]phenyl]imidazolidin-2-one

> <PUBCHEM_IUPAC_NAME>
1-[3-[2-[4-(2-methylquinolin-5-yl)piperazin-1-yl]ethyl]phenyl]imidazolidin-2-one

> <PUBCHEM_IUPAC_SYSTEMATIC_NAME>
1-[3-[2-[4-(2-methylquinolin-5-yl)piperazin-1-yl]ethyl]phenyl]imidazolidin-2-one

> <PUBCHEM_IUPAC_TRADITIONAL_NAME>
1-[3-[2-[4-(2-methyl-5-quinolyl)piperazino]ethyl]phenyl]-2-imidazolidinone

> <PUBCHEM_IUPAC_INCHI>
InChI=1S/C25H29N5O/c1-19-8-9-22-23(27-19)6-3-7-24(22)29-16-14-28(15-17-29)12-10-20-4-2-5-21(18-20)30-13-11-26-25(30)31/h2-9,18H,10-17H2,1H3,(H,26,31)

> <PUBCHEM_IUPAC_INCHIKEY>
ANGUXJDGJCHGOG-UHFFFAOYSA-N

> <PUBCHEM_XLOGP3_AA>
3.4

> <PUBCHEM_EXACT_MASS>
415.23721057

> <PUBCHEM_MOLECULAR_FORMULA>
C25H29N5O

> <PUBCHEM_MOLECULAR_WEIGHT>
415.5

> <PUBCHEM_OPENEYE_CAN_SMILES>
CC1=NC2=C(C=C1)C(=CC=C2)N3CCN(CC3)CCC4=CC(=CC=C4)N5CCNC5=O

> <PUBCHEM_OPENEYE_ISO_SMILES>
CC1=NC2=C(C=C1)C(=CC=C2)N3CCN(CC3)CCC4=CC(=CC=C4)N5CCNC5=O

> <PUBCHEM_CACTVS_TPSA>
51.7

> <PUBCHEM_MONOISOTOPIC_WEIGHT>
415.23721057

> <PUBCHEM_TOTAL_CHARGE>
0

> <PUBCHEM_HEAVY_ATOM_COUNT>
31

> <PUBCHEM_ATOM_DEF_STEREO_COUNT>
0

> <PUBCHEM_ATOM_UDEF_STEREO_COUNT>
0

> <PUBCHEM_BOND_DEF_STEREO_COUNT>
0

> <PUBCHEM_BOND_UDEF_STEREO_COUNT>
0

> <PUBCHEM_ISOTOPIC_ATOM_COUNT>
0

> <PUBCHEM_COMPONENT_COUNT>
1

> <PUBCHEM_CACTVS_TAUTO_COUNT>
2

> <PUBCHEM_COORDINATE_TYPE>
1
5
255

> <PUBCHEM_BONDANNOTATIONS>
13  15  8
13  16  8
14  17  8
14  20  8
15  19  8
15  22  8
16  23  8
17  18  8
18  26  8
19  25  8
20  27  8
22  29  8
23  25  8
26  27  8
29  30  8
6  19  8
6  30  8

$$$$
