71458071
  -OEChem-09292322152D

 38 40  0     0  0  0  0  0  0999 V2000
    2.8660    0.8656    0.0000 N   0  0  0  0  0  0  0  0  0  0  0  0
    2.8660   -1.1344    0.0000 N   0  0  0  0  0  0  0  0  0  0  0  0
    4.8147    3.5680    0.0000 N   0  0  0  0  0  0  0  0  0  0  0  0
    7.3038    2.4929    0.0000 N   0  0  0  0  0  0  0  0  0  0  0  0
    3.7320    0.3656    0.0000 C   0  0  0  0  0  0  0  0  0  0  0  0
    2.0000    0.3656    0.0000 C   0  0  0  0  0  0  0  0  0  0  0  0
    3.7320   -0.6344    0.0000 C   0  0  0  0  0  0  0  0  0  0  0  0
    2.0000   -0.6344    0.0000 C   0  0  0  0  0  0  0  0  0  0  0  0
    2.8660    1.8656    0.0000 C   0  0  0  0  0  0  0  0  0  0  0  0
    2.8660   -2.1344    0.0000 C   0  0  0  0  0  0  0  0  0  0  0  0
    3.7320    2.3656    0.0000 C   0  0  0  0  0  0  0  0  0  0  0  0
    2.0000   -2.6344    0.0000 C   0  0  0  0  0  0  0  0  0  0  0  0
    3.7320   -2.6344    0.0000 C   0  0  0  0  0  0  0  0  0  0  0  0
    4.6456    1.9588    0.0000 C   0  0  0  0  0  0  0  0  0  0  0  0
    3.8366    3.3601    0.0000 C   0  0  0  0  0  0  0  0  0  0  0  0
    5.3147    2.7020    0.0000 C   0  0  0  0  0  0  0  0  0  0  0  0
    2.0000   -3.6344    0.0000 C   0  0  0  0  0  0  0  0  0  0  0  0
    3.7320   -3.6344    0.0000 C   0  0  0  0  0  0  0  0  0  0  0  0
    2.8660   -4.1344    0.0000 C   0  0  0  0  0  0  0  0  0  0  0  0
    6.3092    2.5975    0.0000 C   0  0  0  0  0  0  0  0  0  0  0  0
    4.3426    0.2579    0.0000 H   0  0  0  0  0  0  0  0  0  0  0  0
    3.9441    0.9482    0.0000 H   0  0  0  0  0  0  0  0  0  0  0  0
    1.7880    0.9482    0.0000 H   0  0  0  0  0  0  0  0  0  0  0  0
    1.3894    0.2579    0.0000 H   0  0  0  0  0  0  0  0  0  0  0  0
    3.9441   -1.2170    0.0000 H   0  0  0  0  0  0  0  0  0  0  0  0
    4.3426   -0.5268    0.0000 H   0  0  0  0  0  0  0  0  0  0  0  0
    1.3894   -0.5268    0.0000 H   0  0  0  0  0  0  0  0  0  0  0  0
    1.7880   -1.2170    0.0000 H   0  0  0  0  0  0  0  0  0  0  0  0
    2.6540    2.4482    0.0000 H   0  0  0  0  0  0  0  0  0  0  0  0
    2.2554    1.7579    0.0000 H   0  0  0  0  0  0  0  0  0  0  0  0
    1.4631   -2.3244    0.0000 H   0  0  0  0  0  0  0  0  0  0  0  0
    4.2690   -2.3244    0.0000 H   0  0  0  0  0  0  0  0  0  0  0  0
    4.7745    1.3524    0.0000 H   0  0  0  0  0  0  0  0  0  0  0  0
    3.3758    3.7750    0.0000 H   0  0  0  0  0  0  0  0  0  0  0  0
    5.0669    4.1344    0.0000 H   0  0  0  0  0  0  0  0  0  0  0  0
    1.4631   -3.9444    0.0000 H   0  0  0  0  0  0  0  0  0  0  0  0
    4.2690   -3.9444    0.0000 H   0  0  0  0  0  0  0  0  0  0  0  0
    2.8660   -4.7544    0.0000 H   0  0  0  0  0  0  0  0  0  0  0  0
  1  5  1  0  0  0  0
  1  6  1  0  0  0  0
  1  9  1  0  0  0  0
  2  7  1  0  0  0  0
  2  8  1  0  0  0  0
  2 10  1  0  0  0  0
  3 15  1  0  0  0  0
  3 16  1  0  0  0  0
  3 35  1  0  0  0  0
  4 20  3  0  0  0  0
  5  7  1  0  0  0  0
  5 21  1  0  0  0  0
  5 22  1  0  0  0  0
  6  8  1  0  0  0  0
  6 23  1  0  0  0  0
  6 24  1  0  0  0  0
  7 25  1  0  0  0  0
  7 26  1  0  0  0  0
  8 27  1  0  0  0  0
  8 28  1  0  0  0  0
  9 11  1  0  0  0  0
  9 29  1  0  0  0  0
  9 30  1  0  0  0  0
 10 12  2  0  0  0  0
 10 13  1  0  0  0  0
 11 14  1  0  0  0  0
 11 15  2  0  0  0  0
 12 17  1  0  0  0  0
 12 31  1  0  0  0  0
 13 18  2  0  0  0  0
 13 32  1  0  0  0  0
 14 16  2  0  0  0  0
 14 33  1  0  0  0  0
 15 34  1  0  0  0  0
 16 20  1  0  0  0  0
 17 19  2  0  0  0  0
 17 36  1  0  0  0  0
 18 19  1  0  0  0  0
 18 37  1  0  0  0  0
 19 38  1  0  0  0  0
M  END
> <PUBCHEM_COMPOUND_CID>
71458071

> <PUBCHEM_COMPOUND_CANONICALIZED>
1

> <PUBCHEM_CACTVS_COMPLEXITY>
347

> <PUBCHEM_CACTVS_HBOND_ACCEPTOR>
3

> <PUBCHEM_CACTVS_HBOND_DONOR>
1

> <PUBCHEM_CACTVS_ROTATABLE_BOND>
3

> <PUBCHEM_CACTVS_SUBSKEYS>
AAADceB7gAAAAAAAAAAAAAAAAAAAAWAAAAA8QAAAAAAAAAABwAAAHAAQAAAADAjBHgQ8wJPJkACwBzRnRACigCAxAiAI2aA4ZJgI4OLA0ZGUIAhgkADIyA8QAAAMAAAAAAAAAAAAAAAAAAAAAAAAAAAAAA==

> <PUBCHEM_IUPAC_OPENEYE_NAME>
4-[(4-phenylpiperazin-1-yl)methyl]-1H-pyrrole-2-carbonitrile

> <PUBCHEM_IUPAC_CAS_NAME>
4-[(4-phenyl-1-piperazinyl)methyl]-1H-pyrrole-2-carbonitrile

> <PUBCHEM_IUPAC_NAME_MARKUP>
4-[(4-phenylpiperazin-1-yl)methyl]-1<I>H</I>-pyrrole-2-carbonitrile

> <PUBCHEM_IUPAC_NAME>
4-[(4-phenylpiperazin-1-yl)methyl]-1H-pyrrole-2-carbonitrile

> <PUBCHEM_IUPAC_SYSTEMATIC_NAME>
4-[(4-phenylpiperazin-1-yl)methyl]-1H-pyrrole-2-carbonitrile

> <PUBCHEM_IUPAC_TRADITIONAL_NAME>
4-[(4-phenylpiperazino)methyl]-1H-pyrrole-2-carbonitrile

> <PUBCHEM_IUPAC_INCHI>
InChI=1S/C16H18N4/c17-11-15-10-14(12-18-15)13-19-6-8-20(9-7-19)16-4-2-1-3-5-16/h1-5,10,12,18H,6-9,13H2

> <PUBCHEM_IUPAC_INCHIKEY>
APOXKSCRLNZDPC-UHFFFAOYSA-N

> <PUBCHEM_XLOGP3_AA>
2.2

> <PUBCHEM_EXACT_MASS>
266.153146591

> <PUBCHEM_MOLECULAR_FORMULA>
C16H18N4

> <PUBCHEM_MOLECULAR_WEIGHT>
266.34

> <PUBCHEM_OPENEYE_CAN_SMILES>
C1CN(CCN1CC2=CNC(=C2)C#N)C3=CC=CC=C3

> <PUBCHEM_OPENEYE_ISO_SMILES>
C1CN(CCN1CC2=CNC(=C2)C#N)C3=CC=CC=C3

> <PUBCHEM_CACTVS_TPSA>
46.1

> <PUBCHEM_MONOISOTOPIC_WEIGHT>
266.153146591

> <PUBCHEM_TOTAL_CHARGE>
0

> <PUBCHEM_HEAVY_ATOM_COUNT>
20

> <PUBCHEM_ATOM_DEF_STEREO_COUNT>
0

> <PUBCHEM_ATOM_UDEF_STEREO_COUNT>
0

> <PUBCHEM_BOND_DEF_STEREO_COUNT>
0

> <PUBCHEM_BOND_UDEF_STEREO_COUNT>
0

> <PUBCHEM_ISOTOPIC_ATOM_COUNT>
0

> <PUBCHEM_COMPONENT_COUNT>
1

> <PUBCHEM_CACTVS_TAUTO_COUNT>
-1

> <PUBCHEM_COORDINATE_TYPE>
1
5
255

> <PUBCHEM_BONDANNOTATIONS>
10  12  8
10  13  8
11  14  8
11  15  8
12  17  8
13  18  8
14  16  8
17  19  8
18  19  8
3  15  8
3  16  8

$$$$
