49850570
  -OEChem-09292322312D

 62 65  0     0  0  0  0  0  0999 V2000
    4.5981    4.7673    0.0000 O   0  0  0  0  0  0  0  0  0  0  0  0
    6.3301   -1.2327    0.0000 N   0  0  0  0  0  0  0  0  0  0  0  0
    6.3301   -3.2327    0.0000 N   0  0  0  0  0  0  0  0  0  0  0  0
    8.0901   -6.2673    0.0000 N   0  0  0  0  0  0  0  0  0  0  0  0
    3.7320    3.2673    0.0000 N   0  0  0  0  0  0  0  0  0  0  0  0
    2.8660    4.7673    0.0000 N   0  0  0  0  0  0  0  0  0  0  0  0
    5.4641   -1.7327    0.0000 C   0  0  0  0  0  0  0  0  0  0  0  0
    7.1962   -1.7327    0.0000 C   0  0  0  0  0  0  0  0  0  0  0  0
    5.4641   -2.7327    0.0000 C   0  0  0  0  0  0  0  0  0  0  0  0
    7.1962   -2.7327    0.0000 C   0  0  0  0  0  0  0  0  0  0  0  0
    6.3301   -0.2327    0.0000 C   0  0  0  0  0  0  0  0  0  0  0  0
    6.3301   -4.2327    0.0000 C   0  0  0  0  0  0  0  0  0  0  0  0
    5.4641    0.2673    0.0000 C   0  0  0  0  0  0  0  0  0  0  0  0
    7.1962   -4.7327    0.0000 C   0  0  0  0  0  0  0  0  0  0  0  0
    5.4641    1.2673    0.0000 C   0  0  0  0  0  0  0  0  0  0  0  0
    5.4641   -4.7327    0.0000 C   0  0  0  0  0  0  0  0  0  0  0  0
    7.1962   -5.7327    0.0000 C   0  0  0  0  0  0  0  0  0  0  0  0
    8.0901   -4.1980    0.0000 C   0  0  0  0  0  0  0  0  0  0  0  0
    5.4641   -5.7327    0.0000 C   0  0  0  0  0  0  0  0  0  0  0  0
    6.3301   -6.2327    0.0000 C   0  0  0  0  0  0  0  0  0  0  0  0
    4.5981    1.7673    0.0000 C   0  0  0  0  0  0  0  0  0  0  0  0
    6.3301    1.7673    0.0000 C   0  0  0  0  0  0  0  0  0  0  0  0
    8.9962   -4.7118    0.0000 C   0  0  0  0  0  0  0  0  0  0  0  0
    4.5981    2.7673    0.0000 C   0  0  0  0  0  0  0  0  0  0  0  0
    8.9962   -5.7535    0.0000 C   0  0  0  0  0  0  0  0  0  0  0  0
    6.3301    2.7673    0.0000 C   0  0  0  0  0  0  0  0  0  0  0  0
    5.4641    3.2673    0.0000 C   0  0  0  0  0  0  0  0  0  0  0  0
    9.8602   -6.2568    0.0000 C   0  0  0  0  0  0  0  0  0  0  0  0
    3.7320    4.2673    0.0000 C   0  0  0  0  0  0  0  0  0  0  0  0
    2.8660    5.7673    0.0000 C   0  0  0  0  0  0  0  0  0  0  0  0
    2.0000    6.2673    0.0000 C   0  0  0  0  0  0  0  0  0  0  0  0
    5.2520   -1.1501    0.0000 H   0  0  0  0  0  0  0  0  0  0  0  0
    4.8535   -1.8403    0.0000 H   0  0  0  0  0  0  0  0  0  0  0  0
    7.8067   -1.8403    0.0000 H   0  0  0  0  0  0  0  0  0  0  0  0
    7.4082   -1.1501    0.0000 H   0  0  0  0  0  0  0  0  0  0  0  0
    4.8535   -2.6250    0.0000 H   0  0  0  0  0  0  0  0  0  0  0  0
    5.2520   -3.3153    0.0000 H   0  0  0  0  0  0  0  0  0  0  0  0
    7.4082   -3.3153    0.0000 H   0  0  0  0  0  0  0  0  0  0  0  0
    7.8067   -2.6250    0.0000 H   0  0  0  0  0  0  0  0  0  0  0  0
    6.9407   -0.3403    0.0000 H   0  0  0  0  0  0  0  0  0  0  0  0
    6.5422    0.3499    0.0000 H   0  0  0  0  0  0  0  0  0  0  0  0
    4.8535    0.3750    0.0000 H   0  0  0  0  0  0  0  0  0  0  0  0
    5.2520   -0.3153    0.0000 H   0  0  0  0  0  0  0  0  0  0  0  0
    4.9272   -4.4227    0.0000 H   0  0  0  0  0  0  0  0  0  0  0  0
    8.0829   -3.5780    0.0000 H   0  0  0  0  0  0  0  0  0  0  0  0
    4.9272   -6.0427    0.0000 H   0  0  0  0  0  0  0  0  0  0  0  0
    6.3301   -6.8527    0.0000 H   0  0  0  0  0  0  0  0  0  0  0  0
    4.0611    1.4573    0.0000 H   0  0  0  0  0  0  0  0  0  0  0  0
    6.8671    1.4573    0.0000 H   0  0  0  0  0  0  0  0  0  0  0  0
    9.5319   -4.3998    0.0000 H   0  0  0  0  0  0  0  0  0  0  0  0
    6.8671    3.0773    0.0000 H   0  0  0  0  0  0  0  0  0  0  0  0
    5.4641    3.8873    0.0000 H   0  0  0  0  0  0  0  0  0  0  0  0
    9.5482   -6.7926    0.0000 H   0  0  0  0  0  0  0  0  0  0  0  0
   10.3960   -6.5689    0.0000 H   0  0  0  0  0  0  0  0  0  0  0  0
   10.1723   -5.7211    0.0000 H   0  0  0  0  0  0  0  0  0  0  0  0
    3.1951    2.9573    0.0000 H   0  0  0  0  0  0  0  0  0  0  0  0
    2.3291    4.4573    0.0000 H   0  0  0  0  0  0  0  0  0  0  0  0
    3.4766    5.6597    0.0000 H   0  0  0  0  0  0  0  0  0  0  0  0
    3.0781    6.3499    0.0000 H   0  0  0  0  0  0  0  0  0  0  0  0
    2.3100    6.8043    0.0000 H   0  0  0  0  0  0  0  0  0  0  0  0
    1.4631    6.5773    0.0000 H   0  0  0  0  0  0  0  0  0  0  0  0
    1.6900    5.7304    0.0000 H   0  0  0  0  0  0  0  0  0  0  0  0
  1 29  2  0  0  0  0
  2  7  1  0  0  0  0
  2  8  1  0  0  0  0
  2 11  1  0  0  0  0
  3  9  1  0  0  0  0
  3 10  1  0  0  0  0
  3 12  1  0  0  0  0
  4 17  1  0  0  0  0
  4 25  2  0  0  0  0
  5 24  1  0  0  0  0
  5 29  1  0  0  0  0
  5 56  1  0  0  0  0
  6 29  1  0  0  0  0
  6 30  1  0  0  0  0
  6 57  1  0  0  0  0
  7  9  1  0  0  0  0
  7 32  1  0  0  0  0
  7 33  1  0  0  0  0
  8 10  1  0  0  0  0
  8 34  1  0  0  0  0
  8 35  1  0  0  0  0
  9 36  1  0  0  0  0
  9 37  1  0  0  0  0
 10 38  1  0  0  0  0
 10 39  1  0  0  0  0
 11 13  1  0  0  0  0
 11 40  1  0  0  0  0
 11 41  1  0  0  0  0
 12 14  1  0  0  0  0
 12 16  2  0  0  0  0
 13 15  1  0  0  0  0
 13 42  1  0  0  0  0
 13 43  1  0  0  0  0
 14 17  2  0  0  0  0
 14 18  1  0  0  0  0
 15 21  2  0  0  0  0
 15 22  1  0  0  0  0
 16 19  1  0  0  0  0
 16 44  1  0  0  0  0
 17 20  1  0  0  0  0
 18 23  2  0  0  0  0
 18 45  1  0  0  0  0
 19 20  2  0  0  0  0
 19 46  1  0  0  0  0
 20 47  1  0  0  0  0
 21 24  1  0  0  0  0
 21 48  1  0  0  0  0
 22 26  2  0  0  0  0
 22 49  1  0  0  0  0
 23 25  1  0  0  0  0
 23 50  1  0  0  0  0
 24 27  2  0  0  0  0
 25 28  1  0  0  0  0
 26 27  1  0  0  0  0
 26 51  1  0  0  0  0
 27 52  1  0  0  0  0
 28 53  1  0  0  0  0
 28 54  1  0  0  0  0
 28 55  1  0  0  0  0
 30 31  1  0  0  0  0
 30 58  1  0  0  0  0
 30 59  1  0  0  0  0
 31 60  1  0  0  0  0
 31 61  1  0  0  0  0
 31 62  1  0  0  0  0
M  END
> <PUBCHEM_COMPOUND_CID>
49850570

> <PUBCHEM_COMPOUND_CANONICALIZED>
1

> <PUBCHEM_CACTVS_COMPLEXITY>
564

> <PUBCHEM_CACTVS_HBOND_ACCEPTOR>
4

> <PUBCHEM_CACTVS_HBOND_DONOR>
2

> <PUBCHEM_CACTVS_ROTATABLE_BOND>
6

> <PUBCHEM_CACTVS_SUBSKEYS>
AAADceB7oAAAAAAAAAAAAAAAAAAAAAAAAAA8eIEAAAAAAACx9AAAHgAQAAAADAjBHgQzwPPIEACoAyRiVACCgCAhAiAImKA4ZJiIYOLA0dGUJAholgLIyCcQgIAOAAAAQAQCAAAAAACACAQAAAAAAAAAAA==

> <PUBCHEM_IUPAC_OPENEYE_NAME>
1-ethyl-3-[3-[2-[4-(2-methyl-5-quinolyl)piperazin-1-yl]ethyl]phenyl]urea

> <PUBCHEM_IUPAC_CAS_NAME>
1-ethyl-3-[3-[2-[4-(2-methyl-5-quinolinyl)-1-piperazinyl]ethyl]phenyl]urea

> <PUBCHEM_IUPAC_NAME_MARKUP>
1-ethyl-3-[3-[2-[4-(2-methylquinolin-5-yl)piperazin-1-yl]ethyl]phenyl]urea

> <PUBCHEM_IUPAC_NAME>
1-ethyl-3-[3-[2-[4-(2-methylquinolin-5-yl)piperazin-1-yl]ethyl]phenyl]urea

> <PUBCHEM_IUPAC_SYSTEMATIC_NAME>
1-ethyl-3-[3-[2-[4-(2-methylquinolin-5-yl)piperazin-1-yl]ethyl]phenyl]urea

> <PUBCHEM_IUPAC_TRADITIONAL_NAME>
1-ethyl-3-[3-[2-[4-(2-methyl-5-quinolyl)piperazino]ethyl]phenyl]urea

> <PUBCHEM_IUPAC_INCHI>
InChI=1S/C25H31N5O/c1-3-26-25(31)28-21-7-4-6-20(18-21)12-13-29-14-16-30(17-15-29)24-9-5-8-23-22(24)11-10-19(2)27-23/h4-11,18H,3,12-17H2,1-2H3,(H2,26,28,31)

> <PUBCHEM_IUPAC_INCHIKEY>
VIPSEWNPWLYICF-UHFFFAOYSA-N

> <PUBCHEM_XLOGP3_AA>
3.9

> <PUBCHEM_EXACT_MASS>
417.25286063

> <PUBCHEM_MOLECULAR_FORMULA>
C25H31N5O

> <PUBCHEM_MOLECULAR_WEIGHT>
417.5

> <PUBCHEM_OPENEYE_CAN_SMILES>
CCNC(=O)NC1=CC=CC(=C1)CCN2CCN(CC2)C3=CC=CC4=C3C=CC(=N4)C

> <PUBCHEM_OPENEYE_ISO_SMILES>
CCNC(=O)NC1=CC=CC(=C1)CCN2CCN(CC2)C3=CC=CC4=C3C=CC(=N4)C

> <PUBCHEM_CACTVS_TPSA>
60.5

> <PUBCHEM_MONOISOTOPIC_WEIGHT>
417.25286063

> <PUBCHEM_TOTAL_CHARGE>
0

> <PUBCHEM_HEAVY_ATOM_COUNT>
31

> <PUBCHEM_ATOM_DEF_STEREO_COUNT>
0

> <PUBCHEM_ATOM_UDEF_STEREO_COUNT>
0

> <PUBCHEM_BOND_DEF_STEREO_COUNT>
0

> <PUBCHEM_BOND_UDEF_STEREO_COUNT>
0

> <PUBCHEM_ISOTOPIC_ATOM_COUNT>
0

> <PUBCHEM_COMPONENT_COUNT>
1

> <PUBCHEM_CACTVS_TAUTO_COUNT>
-1

> <PUBCHEM_COORDINATE_TYPE>
1
5
255

> <PUBCHEM_BONDANNOTATIONS>
12  14  8
12  16  8
14  17  8
14  18  8
15  21  8
15  22  8
16  19  8
17  20  8
18  23  8
19  20  8
21  24  8
22  26  8
23  25  8
24  27  8
26  27  8
4  17  8
4  25  8

$$$$
