71460601
  -OEChem-09292321592D

 64 67  0     0  0  0  0  0  0999 V2000
   13.2717   -1.4370    0.0000 O   0  0  0  0  0  0  0  0  0  0  0  0
    3.7320    2.0262    0.0000 O   0  0  0  0  0  0  0  0  0  0  0  0
   18.5339   -1.4129    0.0000 O   0  0  0  0  0  0  0  0  0  0  0  0
    8.9397   -0.9537    0.0000 N   0  0  0  0  0  0  0  0  0  0  0  0
    7.2038    0.0396    0.0000 N   0  0  0  0  0  0  0  0  0  0  0  0
   16.8019   -1.4129    0.0000 N   0  0  0  0  0  0  0  0  0  0  0  0
    8.9359    0.0463    0.0000 C   0  0  0  0  0  0  0  0  0  0  0  0
    8.0756   -1.4571    0.0000 C   0  0  0  0  0  0  0  0  0  0  0  0
    8.0679    0.5429    0.0000 C   0  0  0  0  0  0  0  0  0  0  0  0
    7.2077   -0.9604    0.0000 C   0  0  0  0  0  0  0  0  0  0  0  0
    9.8077   -1.4504    0.0000 C   0  0  0  0  0  0  0  0  0  0  0  0
   10.6718   -0.9471    0.0000 C   0  0  0  0  0  0  0  0  0  0  0  0
    6.3359    0.5362    0.0000 C   0  0  0  0  0  0  0  0  0  0  0  0
   11.5397   -1.4437    0.0000 C   0  0  0  0  0  0  0  0  0  0  0  0
   12.4038   -0.9404    0.0000 C   0  0  0  0  0  0  0  0  0  0  0  0
    5.4718    0.0329    0.0000 C   0  0  0  0  0  0  0  0  0  0  0  0
    6.3320    1.5362    0.0000 C   0  0  0  0  0  0  0  0  0  0  0  0
    4.6038    0.5296    0.0000 C   0  0  0  0  0  0  0  0  0  0  0  0
    5.4641    2.0329    0.0000 C   0  0  0  0  0  0  0  0  0  0  0  0
   15.9358    0.0871    0.0000 C   0  0  0  0  0  0  0  0  0  0  0  0
   16.8019    0.5871    0.0000 C   0  0  0  0  0  0  0  0  0  0  0  0
    4.6000    1.5296    0.0000 C   0  0  0  0  0  0  0  0  0  0  0  0
   14.1358   -0.9337    0.0000 C   0  0  0  0  0  0  0  0  0  0  0  0
   15.9358   -0.9129    0.0000 C   0  0  0  0  0  0  0  0  0  0  0  0
   17.6679    0.0871    0.0000 C   0  0  0  0  0  0  0  0  0  0  0  0
   15.0419   -1.4475    0.0000 C   0  0  0  0  0  0  0  0  0  0  0  0
   15.0419    0.6218    0.0000 C   0  0  0  0  0  0  0  0  0  0  0  0
   14.1358    0.1079    0.0000 C   0  0  0  0  0  0  0  0  0  0  0  0
   17.6679   -0.9129    0.0000 C   0  0  0  0  0  0  0  0  0  0  0  0
    2.8680    1.5229    0.0000 C   0  0  0  0  0  0  0  0  0  0  0  0
    2.0000    2.0195    0.0000 C   0  0  0  0  0  0  0  0  0  0  0  0
    9.5468   -0.0590    0.0000 H   0  0  0  0  0  0  0  0  0  0  0  0
    9.1457    0.6297    0.0000 H   0  0  0  0  0  0  0  0  0  0  0  0
    7.6789   -1.9336    0.0000 H   0  0  0  0  0  0  0  0  0  0  0  0
    8.4760   -1.9305    0.0000 H   0  0  0  0  0  0  0  0  0  0  0  0
    8.4646    1.0194    0.0000 H   0  0  0  0  0  0  0  0  0  0  0  0
    7.6676    1.0163    0.0000 H   0  0  0  0  0  0  0  0  0  0  0  0
    6.5967   -0.8551    0.0000 H   0  0  0  0  0  0  0  0  0  0  0  0
    6.9979   -1.5438    0.0000 H   0  0  0  0  0  0  0  0  0  0  0  0
    9.4110   -1.9269    0.0000 H   0  0  0  0  0  0  0  0  0  0  0  0
   10.2080   -1.9238    0.0000 H   0  0  0  0  0  0  0  0  0  0  0  0
   11.0684   -0.4706    0.0000 H   0  0  0  0  0  0  0  0  0  0  0  0
   10.2714   -0.4737    0.0000 H   0  0  0  0  0  0  0  0  0  0  0  0
   11.1430   -1.9202    0.0000 H   0  0  0  0  0  0  0  0  0  0  0  0
   11.9401   -1.9171    0.0000 H   0  0  0  0  0  0  0  0  0  0  0  0
   12.8005   -0.4639    0.0000 H   0  0  0  0  0  0  0  0  0  0  0  0
   12.0034   -0.4670    0.0000 H   0  0  0  0  0  0  0  0  0  0  0  0
    5.4742   -0.5871    0.0000 H   0  0  0  0  0  0  0  0  0  0  0  0
    6.8678    1.8483    0.0000 H   0  0  0  0  0  0  0  0  0  0  0  0
    4.0681    0.2175    0.0000 H   0  0  0  0  0  0  0  0  0  0  0  0
    5.4617    2.6529    0.0000 H   0  0  0  0  0  0  0  0  0  0  0  0
   17.2004    1.0621    0.0000 H   0  0  0  0  0  0  0  0  0  0  0  0
   16.4033    1.0621    0.0000 H   0  0  0  0  0  0  0  0  0  0  0  0
   18.2785   -0.0206    0.0000 H   0  0  0  0  0  0  0  0  0  0  0  0
   17.8799    0.6697    0.0000 H   0  0  0  0  0  0  0  0  0  0  0  0
   15.0491   -2.0675    0.0000 H   0  0  0  0  0  0  0  0  0  0  0  0
   15.0491    1.2417    0.0000 H   0  0  0  0  0  0  0  0  0  0  0  0
   13.6001    0.4200    0.0000 H   0  0  0  0  0  0  0  0  0  0  0  0
   16.8019   -2.0329    0.0000 H   0  0  0  0  0  0  0  0  0  0  0  0
    2.4712    1.0464    0.0000 H   0  0  0  0  0  0  0  0  0  0  0  0
    3.2683    1.0495    0.0000 H   0  0  0  0  0  0  0  0  0  0  0  0
    2.3079    2.5577    0.0000 H   0  0  0  0  0  0  0  0  0  0  0  0
    1.4619    2.3275    0.0000 H   0  0  0  0  0  0  0  0  0  0  0  0
    1.6921    1.4814    0.0000 H   0  0  0  0  0  0  0  0  0  0  0  0
  1 15  1  0  0  0  0
  1 23  1  0  0  0  0
  2 22  1  0  0  0  0
  2 30  1  0  0  0  0
  3 29  2  0  0  0  0
  4  7  1  0  0  0  0
  4  8  1  0  0  0  0
  4 11  1  0  0  0  0
  5  9  1  0  0  0  0
  5 10  1  0  0  0  0
  5 13  1  0  0  0  0
  6 24  1  0  0  0  0
  6 29  1  0  0  0  0
  6 59  1  0  0  0  0
  7  9  1  0  0  0  0
  7 32  1  0  0  0  0
  7 33  1  0  0  0  0
  8 10  1  0  0  0  0
  8 34  1  0  0  0  0
  8 35  1  0  0  0  0
  9 36  1  0  0  0  0
  9 37  1  0  0  0  0
 10 38  1  0  0  0  0
 10 39  1  0  0  0  0
 11 12  1  0  0  0  0
 11 40  1  0  0  0  0
 11 41  1  0  0  0  0
 12 14  1  0  0  0  0
 12 42  1  0  0  0  0
 12 43  1  0  0  0  0
 13 16  2  0  0  0  0
 13 17  1  0  0  0  0
 14 15  1  0  0  0  0
 14 44  1  0  0  0  0
 14 45  1  0  0  0  0
 15 46  1  0  0  0  0
 15 47  1  0  0  0  0
 16 18  1  0  0  0  0
 16 48  1  0  0  0  0
 17 19  2  0  0  0  0
 17 49  1  0  0  0  0
 18 22  2  0  0  0  0
 18 50  1  0  0  0  0
 19 22  1  0  0  0  0
 19 51  1  0  0  0  0
 20 21  1  0  0  0  0
 20 24  2  0  0  0  0
 20 27  1  0  0  0  0
 21 25  1  0  0  0  0
 21 52  1  0  0  0  0
 21 53  1  0  0  0  0
 23 26  2  0  0  0  0
 23 28  1  0  0  0  0
 24 26  1  0  0  0  0
 25 29  1  0  0  0  0
 25 54  1  0  0  0  0
 25 55  1  0  0  0  0
 26 56  1  0  0  0  0
 27 28  2  0  0  0  0
 27 57  1  0  0  0  0
 28 58  1  0  0  0  0
 30 31  1  0  0  0  0
 30 60  1  0  0  0  0
 30 61  1  0  0  0  0
 31 62  1  0  0  0  0
 31 63  1  0  0  0  0
 31 64  1  0  0  0  0
M  END
> <PUBCHEM_COMPOUND_CID>
71460601

> <PUBCHEM_COMPOUND_CANONICALIZED>
1

> <PUBCHEM_CACTVS_COMPLEXITY>
544

> <PUBCHEM_CACTVS_HBOND_ACCEPTOR>
5

> <PUBCHEM_CACTVS_HBOND_DONOR>
1

> <PUBCHEM_CACTVS_ROTATABLE_BOND>
9

> <PUBCHEM_CACTVS_SUBSKEYS>
AAADcfB7MAAAAAAAAAAAAAAAAAAAAAAAAAA8eIEAAAAAAACxQAAAHgAQAAAADAzhmAYyxoPABACIAiVSUACCCAAhIgAIiAEObIgMZjLEsZuWOCjm1BnI6Ae42aOeIEAAAgACAABAgAAEAAQAAAAAAAAAAA==

> <PUBCHEM_IUPAC_OPENEYE_NAME>
7-[4-[4-(4-ethoxyphenyl)piperazin-1-yl]butoxy]-3,4-dihydro-1H-quinolin-2-one

> <PUBCHEM_IUPAC_CAS_NAME>
7-[4-[4-(4-ethoxyphenyl)-1-piperazinyl]butoxy]-3,4-dihydro-1H-quinolin-2-one

> <PUBCHEM_IUPAC_NAME_MARKUP>
7-[4-[4-(4-ethoxyphenyl)piperazin-1-yl]butoxy]-3,4-dihydro-1<I>H</I>-quinolin-2-one

> <PUBCHEM_IUPAC_NAME>
7-[4-[4-(4-ethoxyphenyl)piperazin-1-yl]butoxy]-3,4-dihydro-1H-quinolin-2-one

> <PUBCHEM_IUPAC_SYSTEMATIC_NAME>
7-[4-[4-(4-ethoxyphenyl)piperazin-1-yl]butoxy]-3,4-dihydro-1H-quinolin-2-one

> <PUBCHEM_IUPAC_TRADITIONAL_NAME>
7-[4-(4-p-phenetylpiperazino)butoxy]-3,4-dihydrocarbostyril

> <PUBCHEM_IUPAC_INCHI>
InChI=1S/C25H33N3O3/c1-2-30-22-10-7-21(8-11-22)28-16-14-27(15-17-28)13-3-4-18-31-23-9-5-20-6-12-25(29)26-24(20)19-23/h5,7-11,19H,2-4,6,12-18H2,1H3,(H,26,29)

> <PUBCHEM_IUPAC_INCHIKEY>
QMMMRXVBSGZXCO-UHFFFAOYSA-N

> <PUBCHEM_XLOGP3_AA>
3.7

> <PUBCHEM_EXACT_MASS>
423.25219192

> <PUBCHEM_MOLECULAR_FORMULA>
C25H33N3O3

> <PUBCHEM_MOLECULAR_WEIGHT>
423.5

> <PUBCHEM_OPENEYE_CAN_SMILES>
CCOC1=CC=C(C=C1)N2CCN(CC2)CCCCOC3=CC4=C(CCC(=O)N4)C=C3

> <PUBCHEM_OPENEYE_ISO_SMILES>
CCOC1=CC=C(C=C1)N2CCN(CC2)CCCCOC3=CC4=C(CCC(=O)N4)C=C3

> <PUBCHEM_CACTVS_TPSA>
54

> <PUBCHEM_MONOISOTOPIC_WEIGHT>
423.25219192

> <PUBCHEM_TOTAL_CHARGE>
0

> <PUBCHEM_HEAVY_ATOM_COUNT>
31

> <PUBCHEM_ATOM_DEF_STEREO_COUNT>
0

> <PUBCHEM_ATOM_UDEF_STEREO_COUNT>
0

> <PUBCHEM_BOND_DEF_STEREO_COUNT>
0

> <PUBCHEM_BOND_UDEF_STEREO_COUNT>
0

> <PUBCHEM_ISOTOPIC_ATOM_COUNT>
0

> <PUBCHEM_COMPONENT_COUNT>
1

> <PUBCHEM_CACTVS_TAUTO_COUNT>
-1

> <PUBCHEM_COORDINATE_TYPE>
1
5
255

> <PUBCHEM_BONDANNOTATIONS>
13  16  8
13  17  8
16  18  8
17  19  8
18  22  8
19  22  8
20  24  8
20  27  8
23  26  8
23  28  8
24  26  8
27  28  8

$$$$
