46882521
  -OEChem-09292322292D

 59 63  0     1  0  0  0  0  0999 V2000
   10.4251    1.1833    0.0000 S   0  0  0  0  0  0  0  0  0  0  0  0
   10.9218    2.0513    0.0000 O   0  0  0  0  0  0  0  0  0  0  0  0
    9.9285    0.3154    0.0000 O   0  0  0  0  0  0  0  0  0  0  0  0
    4.7024    0.6558    0.0000 N   0  0  3  0  0  0  0  0  0  0  0  0
    9.5572    1.6800    0.0000 N   0  0  0  0  0  0  0  0  0  0  0  0
    3.6092   -1.1238    0.0000 N   0  0  0  0  0  0  0  0  0  0  0  0
    2.8660   -1.7929    0.0000 N   0  0  0  0  0  0  0  0  0  0  0  0
    5.1363    1.5568    0.0000 C   0  0  0  0  0  0  0  0  0  0  0  0
    5.1363   -0.2451    0.0000 C   0  0  0  0  0  0  0  0  0  0  0  0
    6.1112    1.7793    0.0000 C   0  0  0  0  0  0  0  0  0  0  0  0
    6.1112   -0.4677    0.0000 C   0  0  0  0  0  0  0  0  0  0  0  0
    6.8931    1.1558    0.0000 C   0  0  0  0  0  0  0  0  0  0  0  0
    6.8931    0.1558    0.0000 C   0  0  0  0  0  0  0  0  0  0  0  0
    3.7024    0.6558    0.0000 C   0  0  0  0  0  0  0  0  0  0  0  0
    7.7870    1.6905    0.0000 C   0  0  0  0  0  0  0  0  0  0  0  0
    7.7870   -0.3788    0.0000 C   0  0  0  0  0  0  0  0  0  0  0  0
    8.6931    1.1766    0.0000 C   0  0  0  0  0  0  0  0  0  0  0  0
    3.2024   -0.2102    0.0000 C   0  0  0  0  0  0  0  0  0  0  0  0
    8.6931    0.1350    0.0000 C   0  0  0  0  0  0  0  0  0  0  0  0
    2.2079   -0.3147    0.0000 C   0  0  0  0  0  0  0  0  0  0  0  0
   11.2931    0.6867    0.0000 C   0  0  0  0  0  0  0  0  0  0  0  0
    2.0000   -1.2929    0.0000 C   0  0  0  0  0  0  0  0  0  0  0  0
   12.1572    1.1900    0.0000 C   0  0  0  0  0  0  0  0  0  0  0  0
   11.2969   -0.3133    0.0000 C   0  0  0  0  0  0  0  0  0  0  0  0
   13.0290   -0.3067    0.0000 C   0  0  0  0  0  0  0  0  0  0  0  0
   13.0251    0.6933    0.0000 C   0  0  0  0  0  0  0  0  0  0  0  0
   12.1649   -0.8100    0.0000 C   0  0  0  0  0  0  0  0  0  0  0  0
   13.8969   -0.8033    0.0000 C   0  0  0  0  0  0  0  0  0  0  0  0
   13.9008   -1.8033    0.0000 C   0  0  0  0  0  0  0  0  0  0  0  0
   14.7610   -0.3000    0.0000 C   0  0  0  0  0  0  0  0  0  0  0  0
   14.7687   -2.3000    0.0000 C   0  0  0  0  0  0  0  0  0  0  0  0
   15.6289   -0.7966    0.0000 C   0  0  0  0  0  0  0  0  0  0  0  0
   15.6328   -1.7966    0.0000 C   0  0  0  0  0  0  0  0  0  0  0  0
    5.1363    2.1768    0.0000 H   0  0  0  0  0  0  0  0  0  0  0  0
    4.5319    1.6948    0.0000 H   0  0  0  0  0  0  0  0  0  0  0  0
    4.5319   -0.3831    0.0000 H   0  0  0  0  0  0  0  0  0  0  0  0
    5.1363   -0.8651    0.0000 H   0  0  0  0  0  0  0  0  0  0  0  0
    6.5960    2.1659    0.0000 H   0  0  0  0  0  0  0  0  0  0  0  0
    5.8422    2.3379    0.0000 H   0  0  0  0  0  0  0  0  0  0  0  0
    5.8422   -1.0263    0.0000 H   0  0  0  0  0  0  0  0  0  0  0  0
    6.5960   -0.8542    0.0000 H   0  0  0  0  0  0  0  0  0  0  0  0
    3.8101    1.2664    0.0000 H   0  0  0  0  0  0  0  0  0  0  0  0
    3.1198    0.8679    0.0000 H   0  0  0  0  0  0  0  0  0  0  0  0
    7.7798    2.3104    0.0000 H   0  0  0  0  0  0  0  0  0  0  0  0
    7.7798   -0.9988    0.0000 H   0  0  0  0  0  0  0  0  0  0  0  0
    9.2288   -0.1771    0.0000 H   0  0  0  0  0  0  0  0  0  0  0  0
    9.5548    2.3000    0.0000 H   0  0  0  0  0  0  0  0  0  0  0  0
    1.7930    0.1460    0.0000 H   0  0  0  0  0  0  0  0  0  0  0  0
    4.2156   -1.2526    0.0000 H   0  0  0  0  0  0  0  0  0  0  0  0
    1.4336   -1.5450    0.0000 H   0  0  0  0  0  0  0  0  0  0  0  0
   12.1548    1.8100    0.0000 H   0  0  0  0  0  0  0  0  0  0  0  0
   10.7612   -0.6254    0.0000 H   0  0  0  0  0  0  0  0  0  0  0  0
   13.5608    1.0054    0.0000 H   0  0  0  0  0  0  0  0  0  0  0  0
   12.1673   -1.4300    0.0000 H   0  0  0  0  0  0  0  0  0  0  0  0
   13.3650   -2.1154    0.0000 H   0  0  0  0  0  0  0  0  0  0  0  0
   14.7586    0.3200    0.0000 H   0  0  0  0  0  0  0  0  0  0  0  0
   14.7711   -2.9200    0.0000 H   0  0  0  0  0  0  0  0  0  0  0  0
   16.1647   -0.4846    0.0000 H   0  0  0  0  0  0  0  0  0  0  0  0
   16.1709   -2.1046    0.0000 H   0  0  0  0  0  0  0  0  0  0  0  0
  1  2  2  0  0  0  0
  1  3  2  0  0  0  0
  1  5  1  0  0  0  0
  1 21  1  0  0  0  0
  4  8  1  0  0  0  0
  4  9  1  0  0  0  0
  4 14  1  0  0  0  0
  5 17  1  0  0  0  0
  5 47  1  0  0  0  0
  6  7  1  0  0  0  0
  6 18  1  0  0  0  0
  6 49  1  0  0  0  0
  7 22  2  0  0  0  0
  8 10  1  0  0  0  0
  8 34  1  0  0  0  0
  8 35  1  0  0  0  0
  9 11  1  0  0  0  0
  9 36  1  0  0  0  0
  9 37  1  0  0  0  0
 10 12  1  0  0  0  0
 10 38  1  0  0  0  0
 10 39  1  0  0  0  0
 11 13  1  0  0  0  0
 11 40  1  0  0  0  0
 11 41  1  0  0  0  0
 12 13  2  0  0  0  0
 12 15  1  0  0  0  0
 13 16  1  0  0  0  0
 14 18  1  0  0  0  0
 14 42  1  0  0  0  0
 14 43  1  0  0  0  0
 15 17  2  0  0  0  0
 15 44  1  0  0  0  0
 16 19  2  0  0  0  0
 16 45  1  0  0  0  0
 17 19  1  0  0  0  0
 18 20  2  0  0  0  0
 19 46  1  0  0  0  0
 20 22  1  0  0  0  0
 20 48  1  0  0  0  0
 21 23  2  0  0  0  0
 21 24  1  0  0  0  0
 22 50  1  0  0  0  0
 23 26  1  0  0  0  0
 23 51  1  0  0  0  0
 24 27  2  0  0  0  0
 24 52  1  0  0  0  0
 25 26  2  0  0  0  0
 25 27  1  0  0  0  0
 25 28  1  0  0  0  0
 26 53  1  0  0  0  0
 27 54  1  0  0  0  0
 28 29  2  0  0  0  0
 28 30  1  0  0  0  0
 29 31  1  0  0  0  0
 29 55  1  0  0  0  0
 30 32  2  0  0  0  0
 30 56  1  0  0  0  0
 31 33  2  0  0  0  0
 31 57  1  0  0  0  0
 32 33  1  0  0  0  0
 32 58  1  0  0  0  0
 33 59  1  0  0  0  0
M  END
> <PUBCHEM_COMPOUND_CID>
46882521

> <PUBCHEM_COMPOUND_CANONICALIZED>
1

> <PUBCHEM_CACTVS_COMPLEXITY>
712

> <PUBCHEM_CACTVS_HBOND_ACCEPTOR>
5

> <PUBCHEM_CACTVS_HBOND_DONOR>
2

> <PUBCHEM_CACTVS_ROTATABLE_BOND>
6

> <PUBCHEM_CACTVS_SUBSKEYS>
AAADceB7sABAAAAAAAAAAAAAAAAAAWAAAAAwYMAABYAAAAAB1AAAHAQYQAAADAjBXgQ8wZNjAAKiAzRnQHDSBBAgggAYuTg4ZJgIYKKA0dGUpAhgmACIyAcQgMAOmAAAQAAQAAAwAACAACAAAAAAAAAAAA==

> <PUBCHEM_IUPAC_OPENEYE_NAME>
4-phenyl-N-[3-(1H-pyrazol-5-ylmethyl)-1,2,4,5-tetrahydro-3-benzazepin-7-yl]benzenesulfonamide

> <PUBCHEM_IUPAC_CAS_NAME>
4-phenyl-N-[3-(1H-pyrazol-5-ylmethyl)-1,2,4,5-tetrahydro-3-benzazepin-7-yl]benzenesulfonamide

> <PUBCHEM_IUPAC_NAME_MARKUP>
4-phenyl-<I>N</I>-[3-(1<I>H</I>-pyrazol-5-ylmethyl)-1,2,4,5-tetrahydro-3-benzazepin-7-yl]benzenesulfonamide

> <PUBCHEM_IUPAC_NAME>
4-phenyl-N-[3-(1H-pyrazol-5-ylmethyl)-1,2,4,5-tetrahydro-3-benzazepin-7-yl]benzenesulfonamide

> <PUBCHEM_IUPAC_SYSTEMATIC_NAME>
4-phenyl-N-[3-(1H-pyrazol-5-ylmethyl)-1,2,4,5-tetrahydro-3-benzazepin-7-yl]benzenesulfonamide

> <PUBCHEM_IUPAC_TRADITIONAL_NAME>
4-phenyl-N-[3-(1H-pyrazol-5-ylmethyl)-1,2,4,5-tetrahydro-3-benzazepin-7-yl]benzenesulfonamide

> <PUBCHEM_IUPAC_INCHI>
InChI=1S/C26H26N4O2S/c31-33(32,26-10-7-21(8-11-26)20-4-2-1-3-5-20)29-24-9-6-22-13-16-30(17-14-23(22)18-24)19-25-12-15-27-28-25/h1-12,15,18,29H,13-14,16-17,19H2,(H,27,28)

> <PUBCHEM_IUPAC_INCHIKEY>
GSIRAOVJCFHRIN-UHFFFAOYSA-N

> <PUBCHEM_XLOGP3_AA>
4.2

> <PUBCHEM_EXACT_MASS>
458.17764726

> <PUBCHEM_MOLECULAR_FORMULA>
C26H26N4O2S

> <PUBCHEM_MOLECULAR_WEIGHT>
458.6

> <PUBCHEM_OPENEYE_CAN_SMILES>
C1CN(CCC2=C1C=CC(=C2)NS(=O)(=O)C3=CC=C(C=C3)C4=CC=CC=C4)CC5=CC=NN5

> <PUBCHEM_OPENEYE_ISO_SMILES>
C1CN(CCC2=C1C=CC(=C2)NS(=O)(=O)C3=CC=C(C=C3)C4=CC=CC=C4)CC5=CC=NN5

> <PUBCHEM_CACTVS_TPSA>
86.5

> <PUBCHEM_MONOISOTOPIC_WEIGHT>
458.17764726

> <PUBCHEM_TOTAL_CHARGE>
0

> <PUBCHEM_HEAVY_ATOM_COUNT>
33

> <PUBCHEM_ATOM_DEF_STEREO_COUNT>
0

> <PUBCHEM_ATOM_UDEF_STEREO_COUNT>
0

> <PUBCHEM_BOND_DEF_STEREO_COUNT>
0

> <PUBCHEM_BOND_UDEF_STEREO_COUNT>
0

> <PUBCHEM_ISOTOPIC_ATOM_COUNT>
0

> <PUBCHEM_COMPONENT_COUNT>
1

> <PUBCHEM_CACTVS_TAUTO_COUNT>
-1

> <PUBCHEM_COORDINATE_TYPE>
1
5
255

> <PUBCHEM_BONDANNOTATIONS>
12  13  8
12  15  8
13  16  8
15  17  8
16  19  8
17  19  8
18  20  8
20  22  8
21  23  8
21  24  8
23  26  8
24  27  8
25  26  8
25  27  8
28  29  8
28  30  8
29  31  8
30  32  8
31  33  8
32  33  8
6  18  8
6  7  8
7  22  8

$$$$
