57383413
  -OEChem-09292321582D

 46 49  0     1  0  0  0  0  0999 V2000
    2.0000   -0.6643    0.0000 Cl  0  0  0  0  0  0  0  0  0  0  0  0
   10.9077   -0.8547    0.0000 S   0  0  3  0  0  0  0  0  0  0  0  0
   10.9077   -1.8546    0.0000 O   0  0  0  0  0  0  0  0  0  0  0  0
   11.8416    2.2370    0.0000 O   0  0  0  0  0  0  0  0  0  0  0  0
    6.8516    1.4482    0.0000 O   0  0  0  0  0  0  0  0  0  0  0  0
   10.4077    1.3360    0.0000 N   0  0  0  0  0  0  0  0  0  0  0  0
    6.3346   -0.2050    0.0000 N   0  0  0  0  0  0  0  0  0  0  0  0
    9.7842    0.5542    0.0000 C   0  0  0  0  0  0  0  0  0  0  0  0
   10.0068   -0.4208    0.0000 C   0  0  0  0  0  0  0  0  0  0  0  0
   11.8087   -0.4208    0.0000 C   0  0  0  0  0  0  0  0  0  0  0  0
   12.0312    0.5542    0.0000 C   0  0  0  0  0  0  0  0  0  0  0  0
    8.7937    0.8765    0.0000 C   0  0  0  0  0  0  0  0  0  0  0  0
   11.4077    1.3360    0.0000 C   0  0  0  0  0  0  0  0  0  0  0  0
    8.0247    0.1739    0.0000 C   0  0  0  0  0  0  0  0  0  0  0  0
    9.2542   -1.1409    0.0000 C   0  0  0  0  0  0  0  0  0  0  0  0
    8.2565   -0.8416    0.0000 C   0  0  0  0  0  0  0  0  0  0  0  0
    9.9739    2.2370    0.0000 C   0  0  0  0  0  0  0  0  0  0  0  0
   12.5612   -1.1410    0.0000 C   0  0  0  0  0  0  0  0  0  0  0  0
   13.0217    0.8765    0.0000 C   0  0  0  0  0  0  0  0  0  0  0  0
    7.0703    0.4724    0.0000 C   0  0  0  0  0  0  0  0  0  0  0  0
    5.3802    0.0935    0.0000 C   0  0  0  0  0  0  0  0  0  0  0  0
   13.5589   -0.8416    0.0000 C   0  0  0  0  0  0  0  0  0  0  0  0
   13.7907    0.1739    0.0000 C   0  0  0  0  0  0  0  0  0  0  0  0
    4.6445   -0.5839    0.0000 C   0  0  0  0  0  0  0  0  0  0  0  0
    3.6901   -0.2854    0.0000 C   0  0  0  0  0  0  0  0  0  0  0  0
    4.8633   -1.5596    0.0000 C   0  0  0  0  0  0  0  0  0  0  0  0
    2.9544   -0.9627    0.0000 C   0  0  0  0  0  0  0  0  0  0  0  0
    4.1276   -2.2370    0.0000 C   0  0  0  0  0  0  0  0  0  0  0  0
    3.1732   -1.9385    0.0000 C   0  0  0  0  0  0  0  0  0  0  0  0
    8.6628    1.4825    0.0000 H   0  0  0  0  0  0  0  0  0  0  0  0
    9.3991   -1.7438    0.0000 H   0  0  0  0  0  0  0  0  0  0  0  0
    7.8036   -1.2650    0.0000 H   0  0  0  0  0  0  0  0  0  0  0  0
   10.5325    2.5060    0.0000 H   0  0  0  0  0  0  0  0  0  0  0  0
    9.7049    2.7956    0.0000 H   0  0  0  0  0  0  0  0  0  0  0  0
    9.4153    1.9680    0.0000 H   0  0  0  0  0  0  0  0  0  0  0  0
   12.4163   -1.7438    0.0000 H   0  0  0  0  0  0  0  0  0  0  0  0
   13.1527    1.4825    0.0000 H   0  0  0  0  0  0  0  0  0  0  0  0
    5.6652    0.6441    0.0000 H   0  0  0  0  0  0  0  0  0  0  0  0
    4.8874    0.4698    0.0000 H   0  0  0  0  0  0  0  0  0  0  0  0
   14.0118   -1.2651    0.0000 H   0  0  0  0  0  0  0  0  0  0  0  0
   14.3825    0.3589    0.0000 H   0  0  0  0  0  0  0  0  0  0  0  0
    6.4703   -0.8099    0.0000 H   0  0  0  0  0  0  0  0  0  0  0  0
    3.5545    0.3196    0.0000 H   0  0  0  0  0  0  0  0  0  0  0  0
    5.4550   -1.7447    0.0000 H   0  0  0  0  0  0  0  0  0  0  0  0
    4.2632   -2.8420    0.0000 H   0  0  0  0  0  0  0  0  0  0  0  0
    2.7171   -2.3585    0.0000 H   0  0  0  0  0  0  0  0  0  0  0  0
  1 27  1  0  0  0  0
  2  3  2  0  0  0  0
  2  9  1  0  0  0  0
  2 10  1  0  0  0  0
  4 13  2  0  0  0  0
  5 20  2  0  0  0  0
  6  8  1  0  0  0  0
  6 13  1  0  0  0  0
  6 17  1  0  0  0  0
  7 20  1  0  0  0  0
  7 21  1  0  0  0  0
  7 42  1  0  0  0  0
  8  9  2  0  0  0  0
  8 12  1  0  0  0  0
  9 15  1  0  0  0  0
 10 11  1  0  0  0  0
 10 18  2  0  0  0  0
 11 13  1  0  0  0  0
 11 19  2  0  0  0  0
 12 14  2  0  0  0  0
 12 30  1  0  0  0  0
 14 16  1  0  0  0  0
 14 20  1  0  0  0  0
 15 16  2  0  0  0  0
 15 31  1  0  0  0  0
 16 32  1  0  0  0  0
 17 33  1  0  0  0  0
 17 34  1  0  0  0  0
 17 35  1  0  0  0  0
 18 22  1  0  0  0  0
 18 36  1  0  0  0  0
 19 23  1  0  0  0  0
 19 37  1  0  0  0  0
 21 24  1  0  0  0  0
 21 38  1  0  0  0  0
 21 39  1  0  0  0  0
 22 23  2  0  0  0  0
 22 40  1  0  0  0  0
 23 41  1  0  0  0  0
 24 25  2  0  0  0  0
 24 26  1  0  0  0  0
 25 27  1  0  0  0  0
 25 43  1  0  0  0  0
 26 28  2  0  0  0  0
 26 44  1  0  0  0  0
 27 29  2  0  0  0  0
 28 29  1  0  0  0  0
 28 45  1  0  0  0  0
 29 46  1  0  0  0  0
M  END
> <PUBCHEM_COMPOUND_CID>
57383413

> <PUBCHEM_COMPOUND_CANONICALIZED>
1

> <PUBCHEM_CACTVS_COMPLEXITY>
660

> <PUBCHEM_CACTVS_HBOND_ACCEPTOR>
4

> <PUBCHEM_CACTVS_HBOND_DONOR>
1

> <PUBCHEM_CACTVS_ROTATABLE_BOND>
3

> <PUBCHEM_CACTVS_SUBSKEYS>
AAADceB7MABEAAAAAAAAAAAAAAAAAAAAAAAwYMAABYAAAAABUAAAHgYQAAAADArB2CQywYPAAAqIAiVSUEDCAAAlDxAIiJ0IZsgIIDLhl5GEIQhghgDoyYcciACOEAAAYAAEAQAgAADAAAgCAAAAAAAAAA==

> <PUBCHEM_IUPAC_OPENEYE_NAME>
N-[(3-chlorophenyl)methyl]-5-methyl-6,11-dioxo-benzo[b][1,4]benzothiazepine-3-carboxamide

> <PUBCHEM_IUPAC_CAS_NAME>
N-[(3-chlorophenyl)methyl]-5-methyl-6,11-dioxo-3-benzo[b][1,4]benzothiazepinecarboxamide

> <PUBCHEM_IUPAC_NAME_MARKUP>
<I>N</I>-[(3-chlorophenyl)methyl]-5-methyl-6,11-dioxobenzo[b][1,4]benzothiazepine-3-carboxamide

> <PUBCHEM_IUPAC_NAME>
N-[(3-chlorophenyl)methyl]-5-methyl-6,11-dioxobenzo[b][1,4]benzothiazepine-3-carboxamide

> <PUBCHEM_IUPAC_SYSTEMATIC_NAME>
N-[(3-chlorophenyl)methyl]-5-methyl-6,11-bis(oxidanylidene)benzo[b][1,4]benzothiazepine-3-carboxamide

> <PUBCHEM_IUPAC_TRADITIONAL_NAME>
N-(3-chlorobenzyl)-6,11-diketo-5-methyl-benzo[b][1,4]benzothiazepine-3-carboxamide

> <PUBCHEM_IUPAC_INCHI>
InChI=1S/C22H17ClN2O3S/c1-25-18-12-15(21(26)24-13-14-5-4-6-16(23)11-14)9-10-20(18)29(28)19-8-3-2-7-17(19)22(25)27/h2-12H,13H2,1H3,(H,24,26)

> <PUBCHEM_IUPAC_INCHIKEY>
XMYUQPZEVYTYAU-UHFFFAOYSA-N

> <PUBCHEM_XLOGP3_AA>
3.2

> <PUBCHEM_EXACT_MASS>
424.0648413

> <PUBCHEM_MOLECULAR_FORMULA>
C22H17ClN2O3S

> <PUBCHEM_MOLECULAR_WEIGHT>
424.9

> <PUBCHEM_OPENEYE_CAN_SMILES>
CN1C2=C(C=CC(=C2)C(=O)NCC3=CC(=CC=C3)Cl)S(=O)C4=CC=CC=C4C1=O

> <PUBCHEM_OPENEYE_ISO_SMILES>
CN1C2=C(C=CC(=C2)C(=O)NCC3=CC(=CC=C3)Cl)S(=O)C4=CC=CC=C4C1=O

> <PUBCHEM_CACTVS_TPSA>
85.7

> <PUBCHEM_MONOISOTOPIC_WEIGHT>
424.0648413

> <PUBCHEM_TOTAL_CHARGE>
0

> <PUBCHEM_HEAVY_ATOM_COUNT>
29

> <PUBCHEM_ATOM_DEF_STEREO_COUNT>
0

> <PUBCHEM_ATOM_UDEF_STEREO_COUNT>
1

> <PUBCHEM_BOND_DEF_STEREO_COUNT>
0

> <PUBCHEM_BOND_UDEF_STEREO_COUNT>
0

> <PUBCHEM_ISOTOPIC_ATOM_COUNT>
0

> <PUBCHEM_COMPONENT_COUNT>
1

> <PUBCHEM_CACTVS_TAUTO_COUNT>
-1

> <PUBCHEM_COORDINATE_TYPE>
1
5
255

> <PUBCHEM_BONDANNOTATIONS>
10  11  8
10  18  8
11  19  8
12  14  8
14  16  8
15  16  8
18  22  8
19  23  8
2  10  3
22  23  8
24  25  8
24  26  8
25  27  8
26  28  8
27  29  8
28  29  8
8  12  8
8  9  8
9  15  8

$$$$
