10355406
  -OEChem-09292322132D

 45 46  0     1  0  0  0  0  0999 V2000
    8.9446   -2.7673    0.0000 F   0  0  0  0  0  0  0  0  0  0  0  0
    5.4641    0.2673    0.0000 N   0  0  3  0  0  0  0  0  0  0  0  0
    6.3301   -0.2327    0.0000 C   0  0  2  0  0  0  0  0  0  0  0  0
    6.3301   -1.2327    0.0000 C   0  0  0  0  0  0  0  0  0  0  0  0
    7.1962    0.2673    0.0000 C   0  0  0  0  0  0  0  0  0  0  0  0
    7.1962   -1.7327    0.0000 C   0  0  0  0  0  0  0  0  0  0  0  0
    8.0622   -0.2327    0.0000 C   0  0  0  0  0  0  0  0  0  0  0  0
    8.0622   -1.2327    0.0000 C   0  0  0  0  0  0  0  0  0  0  0  0
    4.5981   -0.2327    0.0000 C   0  0  0  0  0  0  0  0  0  0  0  0
    5.4641    1.2673    0.0000 C   0  0  0  0  0  0  0  0  0  0  0  0
    3.7320    0.2673    0.0000 C   0  0  0  0  0  0  0  0  0  0  0  0
    4.5981    1.7673    0.0000 C   0  0  0  0  0  0  0  0  0  0  0  0
    8.9561    0.3020    0.0000 C   0  0  0  0  0  0  0  0  0  0  0  0
    8.9561   -1.7674    0.0000 C   0  0  0  0  0  0  0  0  0  0  0  0
    2.8660   -0.2327    0.0000 C   0  0  0  0  0  0  0  0  0  0  0  0
    9.8622   -0.2119    0.0000 C   0  0  0  0  0  0  0  0  0  0  0  0
    9.8622   -1.2535    0.0000 C   0  0  0  0  0  0  0  0  0  0  0  0
    4.5981    2.7673    0.0000 C   0  0  0  0  0  0  0  0  0  0  0  0
    2.0000    0.2673    0.0000 C   0  0  0  0  0  0  0  0  0  0  0  0
    5.7932   -0.5427    0.0000 H   0  0  0  0  0  0  0  0  0  0  0  0
    5.7196   -1.1250    0.0000 H   0  0  0  0  0  0  0  0  0  0  0  0
    6.1181   -1.8153    0.0000 H   0  0  0  0  0  0  0  0  0  0  0  0
    7.5947    0.7422    0.0000 H   0  0  0  0  0  0  0  0  0  0  0  0
    6.7976    0.7422    0.0000 H   0  0  0  0  0  0  0  0  0  0  0  0
    6.7976   -2.2076    0.0000 H   0  0  0  0  0  0  0  0  0  0  0  0
    7.5947   -2.2076    0.0000 H   0  0  0  0  0  0  0  0  0  0  0  0
    4.1996   -0.7076    0.0000 H   0  0  0  0  0  0  0  0  0  0  0  0
    4.9966   -0.7076    0.0000 H   0  0  0  0  0  0  0  0  0  0  0  0
    6.0747    1.1596    0.0000 H   0  0  0  0  0  0  0  0  0  0  0  0
    5.6762    1.8499    0.0000 H   0  0  0  0  0  0  0  0  0  0  0  0
    4.1306    0.7422    0.0000 H   0  0  0  0  0  0  0  0  0  0  0  0
    3.3335    0.7422    0.0000 H   0  0  0  0  0  0  0  0  0  0  0  0
    3.9875    1.8750    0.0000 H   0  0  0  0  0  0  0  0  0  0  0  0
    4.3860    1.1847    0.0000 H   0  0  0  0  0  0  0  0  0  0  0  0
    8.9490    0.9219    0.0000 H   0  0  0  0  0  0  0  0  0  0  0  0
    2.4675   -0.7076    0.0000 H   0  0  0  0  0  0  0  0  0  0  0  0
    3.2646   -0.7076    0.0000 H   0  0  0  0  0  0  0  0  0  0  0  0
   10.3979    0.1002    0.0000 H   0  0  0  0  0  0  0  0  0  0  0  0
   10.3979   -1.5656    0.0000 H   0  0  0  0  0  0  0  0  0  0  0  0
    5.2181    2.7673    0.0000 H   0  0  0  0  0  0  0  0  0  0  0  0
    4.5981    3.3873    0.0000 H   0  0  0  0  0  0  0  0  0  0  0  0
    3.9781    2.7673    0.0000 H   0  0  0  0  0  0  0  0  0  0  0  0
    2.3100    0.8042    0.0000 H   0  0  0  0  0  0  0  0  0  0  0  0
    1.4631    0.5773    0.0000 H   0  0  0  0  0  0  0  0  0  0  0  0
    1.6900   -0.2696    0.0000 H   0  0  0  0  0  0  0  0  0  0  0  0
  1 14  1  0  0  0  0
  3  2  1  1  0  0  0
  2  9  1  0  0  0  0
  2 10  1  0  0  0  0
  3  4  1  0  0  0  0
  3  5  1  0  0  0  0
  3 20  1  0  0  0  0
  4  6  1  0  0  0  0
  4 21  1  0  0  0  0
  4 22  1  0  0  0  0
  5  7  1  0  0  0  0
  5 23  1  0  0  0  0
  5 24  1  0  0  0  0
  6  8  1  0  0  0  0
  6 25  1  0  0  0  0
  6 26  1  0  0  0  0
  7  8  2  0  0  0  0
  7 13  1  0  0  0  0
  8 14  1  0  0  0  0
  9 11  1  0  0  0  0
  9 27  1  0  0  0  0
  9 28  1  0  0  0  0
 10 12  1  0  0  0  0
 10 29  1  0  0  0  0
 10 30  1  0  0  0  0
 11 15  1  0  0  0  0
 11 31  1  0  0  0  0
 11 32  1  0  0  0  0
 12 18  1  0  0  0  0
 12 33  1  0  0  0  0
 12 34  1  0  0  0  0
 13 16  2  0  0  0  0
 13 35  1  0  0  0  0
 14 17  2  0  0  0  0
 15 19  1  0  0  0  0
 15 36  1  0  0  0  0
 15 37  1  0  0  0  0
 16 17  1  0  0  0  0
 16 38  1  0  0  0  0
 17 39  1  0  0  0  0
 18 40  1  0  0  0  0
 18 41  1  0  0  0  0
 18 42  1  0  0  0  0
 19 43  1  0  0  0  0
 19 44  1  0  0  0  0
 19 45  1  0  0  0  0
M  END
> <PUBCHEM_COMPOUND_CID>
10355406

> <PUBCHEM_COMPOUND_CANONICALIZED>
1

> <PUBCHEM_CACTVS_COMPLEXITY>
256

> <PUBCHEM_CACTVS_HBOND_ACCEPTOR>
2

> <PUBCHEM_CACTVS_HBOND_DONOR>
0

> <PUBCHEM_CACTVS_ROTATABLE_BOND>
6

> <PUBCHEM_CACTVS_SUBSKEYS>
AAADceB6AQAAAAAAAAAAAAAAAAAAAAAAAAAwYAAAAAAAAADBAAAAHQAAAAAADCjBGAwyAIMAAACAAiBCAAACAAAgAAAIiAAIAIgIICKAkRGEIAAggACIiAcQgIAOgAAAAAAQAAAQAACAACAAAAAAAAAAAA==

> <PUBCHEM_IUPAC_OPENEYE_NAME>
(2R)-N-butyl-5-fluoro-N-propyl-tetralin-2-amine

> <PUBCHEM_IUPAC_CAS_NAME>
(2R)-N-butyl-5-fluoro-N-propyl-1,2,3,4-tetrahydronaphthalen-2-amine

> <PUBCHEM_IUPAC_NAME_MARKUP>
(2<I>R</I>)-<I>N</I>-butyl-5-fluoro-<I>N</I>-propyl-1,2,3,4-tetrahydronaphthalen-2-amine

> <PUBCHEM_IUPAC_NAME>
(2R)-N-butyl-5-fluoro-N-propyl-1,2,3,4-tetrahydronaphthalen-2-amine

> <PUBCHEM_IUPAC_SYSTEMATIC_NAME>
(2R)-N-butyl-5-fluoranyl-N-propyl-1,2,3,4-tetrahydronaphthalen-2-amine

> <PUBCHEM_IUPAC_TRADITIONAL_NAME>
butyl-[(2R)-5-fluorotetralin-2-yl]-propyl-amine

> <PUBCHEM_IUPAC_INCHI>
InChI=1S/C17H26FN/c1-3-5-12-19(11-4-2)15-9-10-16-14(13-15)7-6-8-17(16)18/h6-8,15H,3-5,9-13H2,1-2H3/t15-/m1/s1

> <PUBCHEM_IUPAC_INCHIKEY>
VYCKVQISRHCOOL-OAHLLOKOSA-N

> <PUBCHEM_XLOGP3_AA>
4.9

> <PUBCHEM_EXACT_MASS>
263.204927996

> <PUBCHEM_MOLECULAR_FORMULA>
C17H26FN

> <PUBCHEM_MOLECULAR_WEIGHT>
263.4

> <PUBCHEM_OPENEYE_CAN_SMILES>
CCCCN(CCC)C1CCC2=C(C1)C=CC=C2F

> <PUBCHEM_OPENEYE_ISO_SMILES>
CCCCN(CCC)[C@@H]1CCC2=C(C1)C=CC=C2F

> <PUBCHEM_CACTVS_TPSA>
3.2

> <PUBCHEM_MONOISOTOPIC_WEIGHT>
263.204927996

> <PUBCHEM_TOTAL_CHARGE>
0

> <PUBCHEM_HEAVY_ATOM_COUNT>
19

> <PUBCHEM_ATOM_DEF_STEREO_COUNT>
1

> <PUBCHEM_ATOM_UDEF_STEREO_COUNT>
0

> <PUBCHEM_BOND_DEF_STEREO_COUNT>
0

> <PUBCHEM_BOND_UDEF_STEREO_COUNT>
0

> <PUBCHEM_ISOTOPIC_ATOM_COUNT>
0

> <PUBCHEM_COMPONENT_COUNT>
1

> <PUBCHEM_CACTVS_TAUTO_COUNT>
-1

> <PUBCHEM_COORDINATE_TYPE>
1
5
255

> <PUBCHEM_BONDANNOTATIONS>
13  16  8
14  17  8
16  17  8
3  2  5
7  13  8
7  8  8
8  14  8

$$$$
