118709179
  -OEChem-09292322352D

158165  0     0  0  0  0  0  0999 V2000
    2.0000   13.8679    0.0000 Cl  0  0  0  0  0  0  0  0  0  0  0  0
   14.5284   -5.3607    0.0000 Cl  0  0  0  0  0  0  0  0  0  0  0  0
   13.9369   17.4647    0.0000 F   0  0  0  0  0  0  0  0  0  0  0  0
   10.7964  -17.8248    0.0000 F   0  0  0  0  0  0  0  0  0  0  0  0
    5.2435   12.2931    0.0000 O   0  0  0  0  0  0  0  0  0  0  0  0
   12.0284   -7.9588    0.0000 O   0  0  0  0  0  0  0  0  0  0  0  0
    6.5306   11.1342    0.0000 O   0  0  0  0  0  0  0  0  0  0  0  0
   10.5284   -8.8248    0.0000 O   0  0  0  0  0  0  0  0  0  0  0  0
    9.3895   16.8978    0.0000 O   0  0  0  0  0  0  0  0  0  0  0  0
    9.9303  -13.3248    0.0000 O   0  0  0  0  0  0  0  0  0  0  0  0
    4.4651    4.8498    0.0000 O   0  0  0  0  0  0  0  0  0  0  0  0
    8.0920   -2.0672    0.0000 O   0  0  0  0  0  0  0  0  0  0  0  0
    5.9786    2.6797    0.0000 O   0  0  0  0  0  0  0  0  0  0  0  0
    6.5785    0.1028    0.0000 O   0  0  0  0  0  0  0  0  0  0  0  0
    7.8147   13.6543    0.0000 N   0  0  0  0  0  0  0  0  0  0  0  0
   12.5284  -10.8248    0.0000 N   0  0  0  0  0  0  0  0  0  0  0  0
    3.5287    9.0093    0.0000 N   0  0  0  0  0  0  0  0  0  0  0  0
    8.0339   -6.1222    0.0000 N   0  0  0  0  0  0  0  0  0  0  0  0
    3.8651    7.4266    0.0000 N   0  0  0  0  0  0  0  0  0  0  0  0
    8.6920   -4.6441    0.0000 N   0  0  0  0  0  0  0  0  0  0  0  0
    3.1220    8.0957    0.0000 N   0  0  0  0  0  0  0  0  0  0  0  0
    7.8260   -5.1441    0.0000 N   0  0  0  0  0  0  0  0  0  0  0  0
    5.9126   13.0363    0.0000 C   0  0  0  0  0  0  0  0  0  0  0  0
   12.5284   -8.8248    0.0000 C   0  0  0  0  0  0  0  0  0  0  0  0
    6.1205   14.0144    0.0000 C   0  0  0  0  0  0  0  0  0  0  0  0
    6.6557   12.3672    0.0000 C   0  0  0  0  0  0  0  0  0  0  0  0
   13.3944   -9.3248    0.0000 C   0  0  0  0  0  0  0  0  0  0  0  0
   11.6624   -9.3248    0.0000 C   0  0  0  0  0  0  0  0  0  0  0  0
    7.0716   14.3235    0.0000 C   0  0  0  0  0  0  0  0  0  0  0  0
    7.6068   12.6762    0.0000 C   0  0  0  0  0  0  0  0  0  0  0  0
   13.3944  -10.3248    0.0000 C   0  0  0  0  0  0  0  0  0  0  0  0
   11.6624  -10.3248    0.0000 C   0  0  0  0  0  0  0  0  0  0  0  0
    4.9344   13.2442    0.0000 C   0  0  0  0  0  0  0  0  0  0  0  0
   13.0284   -7.9588    0.0000 C   0  0  0  0  0  0  0  0  0  0  0  0
    8.7658   13.9633    0.0000 C   0  0  0  0  0  0  0  0  0  0  0  0
   12.5284  -11.8248    0.0000 C   0  0  0  0  0  0  0  0  0  0  0  0
    8.9737   14.9415    0.0000 C   0  0  0  0  0  0  0  0  0  0  0  0
   11.6624  -12.3248    0.0000 C   0  0  0  0  0  0  0  0  0  0  0  0
    4.6254   14.1953    0.0000 C   0  0  0  0  0  0  0  0  0  0  0  0
   14.0284   -7.9588    0.0000 C   0  0  0  0  0  0  0  0  0  0  0  0
    4.2653   12.5011    0.0000 C   0  0  0  0  0  0  0  0  0  0  0  0
   12.5284   -7.0928    0.0000 C   0  0  0  0  0  0  0  0  0  0  0  0
    5.5525   11.3421    0.0000 C   0  0  0  0  0  0  0  0  0  0  0  0
   11.0284   -7.9588    0.0000 C   0  0  0  0  0  0  0  0  0  0  0  0
    9.9247   15.2505    0.0000 C   0  0  0  0  0  0  0  0  0  0  0  0
   11.6624  -13.3248    0.0000 C   0  0  0  0  0  0  0  0  0  0  0  0
    3.6473   14.4032    0.0000 C   0  0  0  0  0  0  0  0  0  0  0  0
   14.5284   -7.0928    0.0000 C   0  0  0  0  0  0  0  0  0  0  0  0
    3.2872   12.7090    0.0000 C   0  0  0  0  0  0  0  0  0  0  0  0
   13.0284   -6.2268    0.0000 C   0  0  0  0  0  0  0  0  0  0  0  0
    4.8834   10.5989    0.0000 C   0  0  0  0  0  0  0  0  0  0  0  0
   10.5284   -7.0928    0.0000 C   0  0  0  0  0  0  0  0  0  0  0  0
    2.9782   13.6600    0.0000 C   0  0  0  0  0  0  0  0  0  0  0  0
   14.0284   -6.2268    0.0000 C   0  0  0  0  0  0  0  0  0  0  0  0
   10.1326   16.2287    0.0000 C   0  0  0  0  0  0  0  0  0  0  0  0
   10.7964  -13.8248    0.0000 C   0  0  0  0  0  0  0  0  0  0  0  0
    5.1924    9.6479    0.0000 C   0  0  0  0  0  0  0  0  0  0  0  0
    9.5284   -7.0928    0.0000 C   0  0  0  0  0  0  0  0  0  0  0  0
   11.0837   16.5377    0.0000 C   0  0  0  0  0  0  0  0  0  0  0  0
   10.7964  -14.8248    0.0000 C   0  0  0  0  0  0  0  0  0  0  0  0
    4.5232    8.9047    0.0000 C   0  0  0  0  0  0  0  0  0  0  0  0
    9.0284   -6.2268    0.0000 C   0  0  0  0  0  0  0  0  0  0  0  0
   11.8268   15.8685    0.0000 C   0  0  0  0  0  0  0  0  0  0  0  0
    9.9303  -15.3248    0.0000 C   0  0  0  0  0  0  0  0  0  0  0  0
   11.2916   17.5158    0.0000 C   0  0  0  0  0  0  0  0  0  0  0  0
   11.6624  -15.3248    0.0000 C   0  0  0  0  0  0  0  0  0  0  0  0
    4.7311    7.9266    0.0000 C   0  0  0  0  0  0  0  0  0  0  0  0
    9.4352   -5.3132    0.0000 C   0  0  0  0  0  0  0  0  0  0  0  0
   12.7779   16.1776    0.0000 C   0  0  0  0  0  0  0  0  0  0  0  0
    9.9303  -16.3248    0.0000 C   0  0  0  0  0  0  0  0  0  0  0  0
   12.2427   17.8248    0.0000 C   0  0  0  0  0  0  0  0  0  0  0  0
   11.6624  -16.3248    0.0000 C   0  0  0  0  0  0  0  0  0  0  0  0
   12.9858   17.1557    0.0000 C   0  0  0  0  0  0  0  0  0  0  0  0
   10.7964  -16.8248    0.0000 C   0  0  0  0  0  0  0  0  0  0  0  0
    3.7606    6.4321    0.0000 C   0  0  0  0  0  0  0  0  0  0  0  0
    8.7965   -3.6496    0.0000 C   0  0  0  0  0  0  0  0  0  0  0  0
    4.5696    5.8443    0.0000 C   0  0  0  0  0  0  0  0  0  0  0  0
    7.9875   -3.0618    0.0000 C   0  0  0  0  0  0  0  0  0  0  0  0
    5.2741    4.2620    0.0000 C   0  0  0  0  0  0  0  0  0  0  0  0
    7.2830   -1.4795    0.0000 C   0  0  0  0  0  0  0  0  0  0  0  0
    5.1696    3.2675    0.0000 C   0  0  0  0  0  0  0  0  0  0  0  0
    7.3876   -0.4849    0.0000 C   0  0  0  0  0  0  0  0  0  0  0  0
    5.8741    1.6852    0.0000 C   0  0  0  0  0  0  0  0  0  0  0  0
    6.6831    1.0974    0.0000 C   0  0  0  0  0  0  0  0  0  0  0  0
    6.0342   14.6284    0.0000 H   0  0  0  0  0  0  0  0  0  0  0  0
    5.5009   14.0361    0.0000 H   0  0  0  0  0  0  0  0  0  0  0  0
    6.1672   11.9854    0.0000 H   0  0  0  0  0  0  0  0  0  0  0  0
    6.9468   11.8197    0.0000 H   0  0  0  0  0  0  0  0  0  0  0  0
   14.0050   -9.4325    0.0000 H   0  0  0  0  0  0  0  0  0  0  0  0
   13.6065   -8.7422    0.0000 H   0  0  0  0  0  0  0  0  0  0  0  0
   11.4503   -8.7422    0.0000 H   0  0  0  0  0  0  0  0  0  0  0  0
   11.0518   -9.4325    0.0000 H   0  0  0  0  0  0  0  0  0  0  0  0
    7.5601   14.7052    0.0000 H   0  0  0  0  0  0  0  0  0  0  0  0
    6.7805   14.8709    0.0000 H   0  0  0  0  0  0  0  0  0  0  0  0
    7.6931   12.0622    0.0000 H   0  0  0  0  0  0  0  0  0  0  0  0
    8.2264   12.6545    0.0000 H   0  0  0  0  0  0  0  0  0  0  0  0
   13.6065  -10.9074    0.0000 H   0  0  0  0  0  0  0  0  0  0  0  0
   14.0050  -10.2172    0.0000 H   0  0  0  0  0  0  0  0  0  0  0  0
   11.0518  -10.2172    0.0000 H   0  0  0  0  0  0  0  0  0  0  0  0
   11.4503  -10.9074    0.0000 H   0  0  0  0  0  0  0  0  0  0  0  0
    8.8520   13.3494    0.0000 H   0  0  0  0  0  0  0  0  0  0  0  0
    9.3854   13.9417    0.0000 H   0  0  0  0  0  0  0  0  0  0  0  0
   12.7405  -12.4074    0.0000 H   0  0  0  0  0  0  0  0  0  0  0  0
   13.1390  -11.7172    0.0000 H   0  0  0  0  0  0  0  0  0  0  0  0
    8.8874   15.5555    0.0000 H   0  0  0  0  0  0  0  0  0  0  0  0
    8.3541   14.9631    0.0000 H   0  0  0  0  0  0  0  0  0  0  0  0
   11.4503  -11.7422    0.0000 H   0  0  0  0  0  0  0  0  0  0  0  0
   11.0518  -12.4325    0.0000 H   0  0  0  0  0  0  0  0  0  0  0  0
    5.0403   14.6560    0.0000 H   0  0  0  0  0  0  0  0  0  0  0  0
   14.3384   -8.4957    0.0000 H   0  0  0  0  0  0  0  0  0  0  0  0
    4.4569   11.9114    0.0000 H   0  0  0  0  0  0  0  0  0  0  0  0
   11.9084   -7.0928    0.0000 H   0  0  0  0  0  0  0  0  0  0  0  0
   10.0110   14.6365    0.0000 H   0  0  0  0  0  0  0  0  0  0  0  0
   10.5444   15.2289    0.0000 H   0  0  0  0  0  0  0  0  0  0  0  0
   11.8744  -13.9074    0.0000 H   0  0  0  0  0  0  0  0  0  0  0  0
   12.2730  -13.2172    0.0000 H   0  0  0  0  0  0  0  0  0  0  0  0
    3.4557   14.9928    0.0000 H   0  0  0  0  0  0  0  0  0  0  0  0
   15.1484   -7.0928    0.0000 H   0  0  0  0  0  0  0  0  0  0  0  0
    2.8723   12.2482    0.0000 H   0  0  0  0  0  0  0  0  0  0  0  0
   12.7184   -5.6898    0.0000 H   0  0  0  0  0  0  0  0  0  0  0  0
    4.5016   11.0875    0.0000 H   0  0  0  0  0  0  0  0  0  0  0  0
    4.3359   10.3079    0.0000 H   0  0  0  0  0  0  0  0  0  0  0  0
   11.1110   -6.8807    0.0000 H   0  0  0  0  0  0  0  0  0  0  0  0
   10.4208   -6.4822    0.0000 H   0  0  0  0  0  0  0  0  0  0  0  0
    5.5741    9.1593    0.0000 H   0  0  0  0  0  0  0  0  0  0  0  0
    5.7398    9.9390    0.0000 H   0  0  0  0  0  0  0  0  0  0  0  0
    8.9458   -7.3048    0.0000 H   0  0  0  0  0  0  0  0  0  0  0  0
    9.6361   -7.7034    0.0000 H   0  0  0  0  0  0  0  0  0  0  0  0
   11.6979   15.2621    0.0000 H   0  0  0  0  0  0  0  0  0  0  0  0
    9.3934  -15.0148    0.0000 H   0  0  0  0  0  0  0  0  0  0  0  0
   10.8309   17.9307    0.0000 H   0  0  0  0  0  0  0  0  0  0  0  0
   12.1993  -15.0148    0.0000 H   0  0  0  0  0  0  0  0  0  0  0  0
    5.2975    7.6744    0.0000 H   0  0  0  0  0  0  0  0  0  0  0  0
   10.0416   -5.1843    0.0000 H   0  0  0  0  0  0  0  0  0  0  0  0
   13.2386   15.7627    0.0000 H   0  0  0  0  0  0  0  0  0  0  0  0
    9.3934  -16.6348    0.0000 H   0  0  0  0  0  0  0  0  0  0  0  0
   12.3716   18.4313    0.0000 H   0  0  0  0  0  0  0  0  0  0  0  0
   12.1993  -16.6348    0.0000 H   0  0  0  0  0  0  0  0  0  0  0  0
    3.1646    6.6030    0.0000 H   0  0  0  0  0  0  0  0  0  0  0  0
    3.4888    5.8748    0.0000 H   0  0  0  0  0  0  0  0  0  0  0  0
    9.3925   -3.8204    0.0000 H   0  0  0  0  0  0  0  0  0  0  0  0
    9.0683   -3.0923    0.0000 H   0  0  0  0  0  0  0  0  0  0  0  0
    5.1656    5.6734    0.0000 H   0  0  0  0  0  0  0  0  0  0  0  0
    4.8414    6.4015    0.0000 H   0  0  0  0  0  0  0  0  0  0  0  0
    7.3915   -2.8909    0.0000 H   0  0  0  0  0  0  0  0  0  0  0  0
    7.7157   -3.6190    0.0000 H   0  0  0  0  0  0  0  0  0  0  0  0
    5.8701    4.0911    0.0000 H   0  0  0  0  0  0  0  0  0  0  0  0
    5.5459    4.8192    0.0000 H   0  0  0  0  0  0  0  0  0  0  0  0
    6.6870   -1.3086    0.0000 H   0  0  0  0  0  0  0  0  0  0  0  0
    7.0112   -2.0367    0.0000 H   0  0  0  0  0  0  0  0  0  0  0  0
    4.5736    3.4384    0.0000 H   0  0  0  0  0  0  0  0  0  0  0  0
    4.8978    2.7102    0.0000 H   0  0  0  0  0  0  0  0  0  0  0  0
    7.9835   -0.6558    0.0000 H   0  0  0  0  0  0  0  0  0  0  0  0
    7.6594    0.0723    0.0000 H   0  0  0  0  0  0  0  0  0  0  0  0
    5.2781    1.8560    0.0000 H   0  0  0  0  0  0  0  0  0  0  0  0
    5.6023    1.1279    0.0000 H   0  0  0  0  0  0  0  0  0  0  0  0
    7.2791    0.9265    0.0000 H   0  0  0  0  0  0  0  0  0  0  0  0
    6.9549    1.6546    0.0000 H   0  0  0  0  0  0  0  0  0  0  0  0
  1 53  1  0  0  0  0
  2 54  1  0  0  0  0
  3 73  1  0  0  0  0
  4 74  1  0  0  0  0
  5 23  1  0  0  0  0
  5 43  1  0  0  0  0
  6 24  1  0  0  0  0
  6 44  1  0  0  0  0
  7 43  2  0  0  0  0
  8 44  2  0  0  0  0
  9 55  2  0  0  0  0
 10 56  2  0  0  0  0
 11 77  1  0  0  0  0
 11 79  1  0  0  0  0
 12 78  1  0  0  0  0
 12 80  1  0  0  0  0
 13 81  1  0  0  0  0
 13 83  1  0  0  0  0
 14 82  1  0  0  0  0
 14 84  1  0  0  0  0
 15 29  1  0  0  0  0
 15 30  1  0  0  0  0
 15 35  1  0  0  0  0
 16 31  1  0  0  0  0
 16 32  1  0  0  0  0
 16 36  1  0  0  0  0
 17 21  2  0  0  0  0
 17 61  1  0  0  0  0
 18 22  2  0  0  0  0
 18 62  1  0  0  0  0
 19 21  1  0  0  0  0
 19 67  1  0  0  0  0
 19 75  1  0  0  0  0
 20 22  1  0  0  0  0
 20 68  1  0  0  0  0
 20 76  1  0  0  0  0
 23 25  1  0  0  0  0
 23 26  1  0  0  0  0
 23 33  1  0  0  0  0
 24 27  1  0  0  0  0
 24 28  1  0  0  0  0
 24 34  1  0  0  0  0
 25 29  1  0  0  0  0
 25 85  1  0  0  0  0
 25 86  1  0  0  0  0
 26 30  1  0  0  0  0
 26 87  1  0  0  0  0
 26 88  1  0  0  0  0
 27 31  1  0  0  0  0
 27 89  1  0  0  0  0
 27 90  1  0  0  0  0
 28 32  1  0  0  0  0
 28 91  1  0  0  0  0
 28 92  1  0  0  0  0
 29 93  1  0  0  0  0
 29 94  1  0  0  0  0
 30 95  1  0  0  0  0
 30 96  1  0  0  0  0
 31 97  1  0  0  0  0
 31 98  1  0  0  0  0
 32 99  1  0  0  0  0
 32100  1  0  0  0  0
 33 39  2  0  0  0  0
 33 41  1  0  0  0  0
 34 40  2  0  0  0  0
 34 42  1  0  0  0  0
 35 37  1  0  0  0  0
 35101  1  0  0  0  0
 35102  1  0  0  0  0
 36 38  1  0  0  0  0
 36103  1  0  0  0  0
 36104  1  0  0  0  0
 37 45  1  0  0  0  0
 37105  1  0  0  0  0
 37106  1  0  0  0  0
 38 46  1  0  0  0  0
 38107  1  0  0  0  0
 38108  1  0  0  0  0
 39 47  1  0  0  0  0
 39109  1  0  0  0  0
 40 48  1  0  0  0  0
 40110  1  0  0  0  0
 41 49  2  0  0  0  0
 41111  1  0  0  0  0
 42 50  2  0  0  0  0
 42112  1  0  0  0  0
 43 51  1  0  0  0  0
 44 52  1  0  0  0  0
 45 55  1  0  0  0  0
 45113  1  0  0  0  0
 45114  1  0  0  0  0
 46 56  1  0  0  0  0
 46115  1  0  0  0  0
 46116  1  0  0  0  0
 47 53  2  0  0  0  0
 47117  1  0  0  0  0
 48 54  2  0  0  0  0
 48118  1  0  0  0  0
 49 53  1  0  0  0  0
 49119  1  0  0  0  0
 50 54  1  0  0  0  0
 50120  1  0  0  0  0
 51 57  1  0  0  0  0
 51121  1  0  0  0  0
 51122  1  0  0  0  0
 52 58  1  0  0  0  0
 52123  1  0  0  0  0
 52124  1  0  0  0  0
 55 59  1  0  0  0  0
 56 60  1  0  0  0  0
 57 61  1  0  0  0  0
 57125  1  0  0  0  0
 57126  1  0  0  0  0
 58 62  1  0  0  0  0
 58127  1  0  0  0  0
 58128  1  0  0  0  0
 59 63  2  0  0  0  0
 59 65  1  0  0  0  0
 60 64  2  0  0  0  0
 60 66  1  0  0  0  0
 61 67  2  0  0  0  0
 62 68  2  0  0  0  0
 63 69  1  0  0  0  0
 63129  1  0  0  0  0
 64 70  1  0  0  0  0
 64130  1  0  0  0  0
 65 71  2  0  0  0  0
 65131  1  0  0  0  0
 66 72  2  0  0  0  0
 66132  1  0  0  0  0
 67133  1  0  0  0  0
 68134  1  0  0  0  0
 69 73  2  0  0  0  0
 69135  1  0  0  0  0
 70 74  2  0  0  0  0
 70136  1  0  0  0  0
 71 73  1  0  0  0  0
 71137  1  0  0  0  0
 72 74  1  0  0  0  0
 72138  1  0  0  0  0
 75 77  1  0  0  0  0
 75139  1  0  0  0  0
 75140  1  0  0  0  0
 76 78  1  0  0  0  0
 76141  1  0  0  0  0
 76142  1  0  0  0  0
 77143  1  0  0  0  0
 77144  1  0  0  0  0
 78145  1  0  0  0  0
 78146  1  0  0  0  0
 79 81  1  0  0  0  0
 79147  1  0  0  0  0
 79148  1  0  0  0  0
 80 82  1  0  0  0  0
 80149  1  0  0  0  0
 80150  1  0  0  0  0
 81151  1  0  0  0  0
 81152  1  0  0  0  0
 82153  1  0  0  0  0
 82154  1  0  0  0  0
 83 84  1  0  0  0  0
 83155  1  0  0  0  0
 83156  1  0  0  0  0
 84157  1  0  0  0  0
 84158  1  0  0  0  0
M  END
> <PUBCHEM_COMPOUND_CID>
118709179

> <PUBCHEM_COMPOUND_CANONICALIZED>
1

> <PUBCHEM_CACTVS_COMPLEXITY>
1800

> <PUBCHEM_CACTVS_HBOND_ACCEPTOR>
18

> <PUBCHEM_CACTVS_HBOND_DONOR>
0

> <PUBCHEM_CACTVS_ROTATABLE_BOND>
37

> <PUBCHEM_CACTVS_SUBSKEYS>
AAADcfB//YAGAAAAAAAAAAAAAAAAAWLAAAA8eMGCAAAAAAAB9AAAHwIIAAAADE7hni48iJMIBACqA7T3TAACBAQ1lwAY2AE4esgLZjLBtxiXMQAmwAHa6Ye82eKOhAAAAAAAAAAIAAAAAAAAAAAAAAAAAA==

> <PUBCHEM_IUPAC_OPENEYE_NAME>
[4-(4-chlorophenyl)-1-[4-(4-fluorophenyl)-4-oxo-butyl]-4-piperidyl] 3-[1-[2-[2-[2-[2-[2-[4-[3-[[4-(4-chlorophenyl)-1-[4-(4-fluorophenyl)-4-oxo-butyl]-4-piperidyl]oxy]-3-oxo-propyl]triazol-1-yl]ethoxy]ethoxy]ethoxy]ethoxy]ethyl]triazol-4-yl]propanoate

> <PUBCHEM_IUPAC_CAS_NAME>
3-[1-[2-[2-[2-[2-[2-[4-[3-[[4-(4-chlorophenyl)-1-[4-(4-fluorophenyl)-4-oxobutyl]-4-piperidinyl]oxy]-3-oxopropyl]-1-triazolyl]ethoxy]ethoxy]ethoxy]ethoxy]ethyl]-4-triazolyl]propanoic acid [4-(4-chlorophenyl)-1-[4-(4-fluorophenyl)-4-oxobutyl]-4-piperidinyl] ester

> <PUBCHEM_IUPAC_NAME_MARKUP>
[4-(4-chlorophenyl)-1-[4-(4-fluorophenyl)-4-oxobutyl]piperidin-4-yl] 3-[1-[2-[2-[2-[2-[2-[4-[3-[4-(4-chlorophenyl)-1-[4-(4-fluorophenyl)-4-oxobutyl]piperidin-4-yl]oxy-3-oxopropyl]triazol-1-yl]ethoxy]ethoxy]ethoxy]ethoxy]ethyl]triazol-4-yl]propanoate

> <PUBCHEM_IUPAC_NAME>
[4-(4-chlorophenyl)-1-[4-(4-fluorophenyl)-4-oxobutyl]piperidin-4-yl] 3-[1-[2-[2-[2-[2-[2-[4-[3-[4-(4-chlorophenyl)-1-[4-(4-fluorophenyl)-4-oxobutyl]piperidin-4-yl]oxy-3-oxopropyl]triazol-1-yl]ethoxy]ethoxy]ethoxy]ethoxy]ethyl]triazol-4-yl]propanoate

> <PUBCHEM_IUPAC_SYSTEMATIC_NAME>
[4-(4-chlorophenyl)-1-[4-(4-fluorophenyl)-4-oxidanylidene-butyl]piperidin-4-yl] 3-[1-[2-[2-[2-[2-[2-[4-[3-[4-(4-chlorophenyl)-1-[4-(4-fluorophenyl)-4-oxidanylidene-butyl]piperidin-4-yl]oxy-3-oxidanylidene-propyl]-1,2,3-triazol-1-yl]ethoxy]ethoxy]ethoxy]ethoxy]ethyl]-1,2,3-triazol-4-yl]propanoate

> <PUBCHEM_IUPAC_TRADITIONAL_NAME>
3-[1-[2-[2-[2-[2-[2-[4-[3-[[4-(4-chlorophenyl)-1-[4-(4-fluorophenyl)-4-keto-butyl]-4-piperidyl]oxy]-3-keto-propyl]triazol-1-yl]ethoxy]ethoxy]ethoxy]ethoxy]ethyl]triazol-4-yl]propionic acid [4-(4-chlorophenyl)-1-[4-(4-fluorophenyl)-4-keto-butyl]-4-piperidyl] ester

> <PUBCHEM_IUPAC_INCHI>
InChI=1S/C62H74Cl2F2N8O10/c63-51-13-9-49(10-14-51)61(25-31-71(32-26-61)29-1-3-57(75)47-5-17-53(65)18-6-47)83-59(77)23-21-55-45-73(69-67-55)35-37-79-39-41-81-43-44-82-42-40-80-38-36-74-46-56(68-70-74)22-24-60(78)84-62(50-11-15-52(64)16-12-50)27-33-72(34-28-62)30-2-4-58(76)48-7-19-54(66)20-8-48/h5-20,45-46H,1-4,21-44H2

> <PUBCHEM_IUPAC_INCHIKEY>
VCSXUTPJFQYQHZ-UHFFFAOYSA-N

> <PUBCHEM_XLOGP3_AA>
7.2

> <PUBCHEM_EXACT_MASS>
1198.4873023

> <PUBCHEM_MOLECULAR_FORMULA>
C62H74Cl2F2N8O10

> <PUBCHEM_MOLECULAR_WEIGHT>
1200.2

> <PUBCHEM_OPENEYE_CAN_SMILES>
C1CN(CCC1(C2=CC=C(C=C2)Cl)OC(=O)CCC3=CN(N=N3)CCOCCOCCOCCOCCN4C=C(N=N4)CCC(=O)OC5(CCN(CC5)CCCC(=O)C6=CC=C(C=C6)F)C7=CC=C(C=C7)Cl)CCCC(=O)C8=CC=C(C=C8)F

> <PUBCHEM_OPENEYE_ISO_SMILES>
C1CN(CCC1(C2=CC=C(C=C2)Cl)OC(=O)CCC3=CN(N=N3)CCOCCOCCOCCOCCN4C=C(N=N4)CCC(=O)OC5(CCN(CC5)CCCC(=O)C6=CC=C(C=C6)F)C7=CC=C(C=C7)Cl)CCCC(=O)C8=CC=C(C=C8)F

> <PUBCHEM_CACTVS_TPSA>
192

> <PUBCHEM_MONOISOTOPIC_WEIGHT>
1198.4873023

> <PUBCHEM_TOTAL_CHARGE>
0

> <PUBCHEM_HEAVY_ATOM_COUNT>
84

> <PUBCHEM_ATOM_DEF_STEREO_COUNT>
0

> <PUBCHEM_ATOM_UDEF_STEREO_COUNT>
0

> <PUBCHEM_BOND_DEF_STEREO_COUNT>
0

> <PUBCHEM_BOND_UDEF_STEREO_COUNT>
0

> <PUBCHEM_ISOTOPIC_ATOM_COUNT>
0

> <PUBCHEM_COMPONENT_COUNT>
1

> <PUBCHEM_CACTVS_TAUTO_COUNT>
-1

> <PUBCHEM_COORDINATE_TYPE>
1
5
255

> <PUBCHEM_BONDANNOTATIONS>
17  21  8
17  61  8
18  22  8
18  62  8
19  21  8
19  67  8
20  22  8
20  68  8
33  39  8
33  41  8
34  40  8
34  42  8
39  47  8
40  48  8
41  49  8
42  50  8
47  53  8
48  54  8
49  53  8
50  54  8
59  63  8
59  65  8
60  64  8
60  66  8
61  67  8
62  68  8
63  69  8
64  70  8
65  71  8
66  72  8
69  73  8
70  74  8
71  73  8
72  74  8

$$$$
