155514868
  -OEChem-09292322092D

 48 50  0     0  0  0  0  0  0999 V2000
    9.1962    4.5420    0.0000 Cl  0  0  0  0  0  0  0  0  0  0  0  0
    2.0000   -1.9220    0.0000 F   0  0  0  0  0  0  0  0  0  0  0  0
    6.6962    1.9440    0.0000 O   0  0  0  0  0  0  0  0  0  0  0  0
    7.1962   -0.9221    0.0000 N   0  0  0  0  0  0  0  0  0  0  0  0
    7.1962    1.0780    0.0000 C   0  0  0  0  0  0  0  0  0  0  0  0
    8.0622    0.5779    0.0000 C   0  0  0  0  0  0  0  0  0  0  0  0
    6.3301    0.5779    0.0000 C   0  0  0  0  0  0  0  0  0  0  0  0
    8.0622   -0.4221    0.0000 C   0  0  0  0  0  0  0  0  0  0  0  0
    6.3301   -0.4221    0.0000 C   0  0  0  0  0  0  0  0  0  0  0  0
    7.6962    1.9440    0.0000 C   0  0  0  0  0  0  0  0  0  0  0  0
    7.1962   -1.9220    0.0000 C   0  0  0  0  0  0  0  0  0  0  0  0
    6.3301   -2.4220    0.0000 C   0  0  0  0  0  0  0  0  0  0  0  0
    8.6962    1.9440    0.0000 C   0  0  0  0  0  0  0  0  0  0  0  0
    7.1962    2.8100    0.0000 C   0  0  0  0  0  0  0  0  0  0  0  0
    9.1962    2.8100    0.0000 C   0  0  0  0  0  0  0  0  0  0  0  0
    7.6962    3.6760    0.0000 C   0  0  0  0  0  0  0  0  0  0  0  0
    6.3301   -3.4220    0.0000 C   0  0  0  0  0  0  0  0  0  0  0  0
    8.6962    3.6760    0.0000 C   0  0  0  0  0  0  0  0  0  0  0  0
    5.4641   -3.9220    0.0000 C   0  0  0  0  0  0  0  0  0  0  0  0
    4.5981   -3.4220    0.0000 C   0  0  0  0  0  0  0  0  0  0  0  0
    4.5981   -2.4220    0.0000 C   0  0  0  0  0  0  0  0  0  0  0  0
    3.7320   -3.9220    0.0000 C   0  0  0  0  0  0  0  0  0  0  0  0
    3.7320   -1.9220    0.0000 C   0  0  0  0  0  0  0  0  0  0  0  0
    2.8660   -3.4220    0.0000 C   0  0  0  0  0  0  0  0  0  0  0  0
    2.8660   -2.4220    0.0000 C   0  0  0  0  0  0  0  0  0  0  0  0
    8.6728    0.4703    0.0000 H   0  0  0  0  0  0  0  0  0  0  0  0
    8.2742    1.1606    0.0000 H   0  0  0  0  0  0  0  0  0  0  0  0
    6.1181    1.1606    0.0000 H   0  0  0  0  0  0  0  0  0  0  0  0
    5.7196    0.4703    0.0000 H   0  0  0  0  0  0  0  0  0  0  0  0
    8.2742   -1.0047    0.0000 H   0  0  0  0  0  0  0  0  0  0  0  0
    8.6728   -0.3144    0.0000 H   0  0  0  0  0  0  0  0  0  0  0  0
    5.7196   -0.3144    0.0000 H   0  0  0  0  0  0  0  0  0  0  0  0
    6.1181   -1.0047    0.0000 H   0  0  0  0  0  0  0  0  0  0  0  0
    7.4082   -2.5047    0.0000 H   0  0  0  0  0  0  0  0  0  0  0  0
    7.8067   -1.8144    0.0000 H   0  0  0  0  0  0  0  0  0  0  0  0
    6.0762    1.9440    0.0000 H   0  0  0  0  0  0  0  0  0  0  0  0
    6.1181   -1.8394    0.0000 H   0  0  0  0  0  0  0  0  0  0  0  0
    5.7196   -2.5297    0.0000 H   0  0  0  0  0  0  0  0  0  0  0  0
    9.0062    1.4070    0.0000 H   0  0  0  0  0  0  0  0  0  0  0  0
    6.5762    2.8100    0.0000 H   0  0  0  0  0  0  0  0  0  0  0  0
    9.8162    2.8100    0.0000 H   0  0  0  0  0  0  0  0  0  0  0  0
    7.3862    4.2130    0.0000 H   0  0  0  0  0  0  0  0  0  0  0  0
    6.8671   -3.7320    0.0000 H   0  0  0  0  0  0  0  0  0  0  0  0
    5.4641   -4.5420    0.0000 H   0  0  0  0  0  0  0  0  0  0  0  0
    5.1350   -2.1120    0.0000 H   0  0  0  0  0  0  0  0  0  0  0  0
    3.7320   -4.5420    0.0000 H   0  0  0  0  0  0  0  0  0  0  0  0
    3.7320   -1.3020    0.0000 H   0  0  0  0  0  0  0  0  0  0  0  0
    2.3291   -3.7320    0.0000 H   0  0  0  0  0  0  0  0  0  0  0  0
  1 18  1  0  0  0  0
  2 25  1  0  0  0  0
  3  5  1  0  0  0  0
  3 36  1  0  0  0  0
  4  8  1  0  0  0  0
  4  9  1  0  0  0  0
  4 11  1  0  0  0  0
  5  6  1  0  0  0  0
  5  7  1  0  0  0  0
  5 10  1  0  0  0  0
  6  8  1  0  0  0  0
  6 26  1  0  0  0  0
  6 27  1  0  0  0  0
  7  9  1  0  0  0  0
  7 28  1  0  0  0  0
  7 29  1  0  0  0  0
  8 30  1  0  0  0  0
  8 31  1  0  0  0  0
  9 32  1  0  0  0  0
  9 33  1  0  0  0  0
 10 13  2  0  0  0  0
 10 14  1  0  0  0  0
 11 12  1  0  0  0  0
 11 34  1  0  0  0  0
 11 35  1  0  0  0  0
 12 17  1  0  0  0  0
 12 37  1  0  0  0  0
 12 38  1  0  0  0  0
 13 15  1  0  0  0  0
 13 39  1  0  0  0  0
 14 16  2  0  0  0  0
 14 40  1  0  0  0  0
 15 18  2  0  0  0  0
 15 41  1  0  0  0  0
 16 18  1  0  0  0  0
 16 42  1  0  0  0  0
 17 19  2  0  0  0  0
 17 43  1  0  0  0  0
 19 20  1  0  0  0  0
 19 44  1  0  0  0  0
 20 21  2  0  0  0  0
 20 22  1  0  0  0  0
 21 23  1  0  0  0  0
 21 45  1  0  0  0  0
 22 24  2  0  0  0  0
 22 46  1  0  0  0  0
 23 25  2  0  0  0  0
 23 47  1  0  0  0  0
 24 25  1  0  0  0  0
 24 48  1  0  0  0  0
M  END
> <PUBCHEM_COMPOUND_CID>
155514868

> <PUBCHEM_COMPOUND_CANONICALIZED>
1

> <PUBCHEM_CACTVS_COMPLEXITY>
420

> <PUBCHEM_CACTVS_HBOND_ACCEPTOR>
3

> <PUBCHEM_CACTVS_HBOND_DONOR>
1

> <PUBCHEM_CACTVS_ROTATABLE_BOND>
5

> <PUBCHEM_CACTVS_SUBSKEYS>
AAADceB6IQAEAAAAAAAAAAAAAAAAAAAAAAA8YIAAAAAAAAABQAAAHwIACAAADEbBmCwwAIMAAgCAAiBCAAACAAAgBQAIiAAICogIJiKBkxCEcAAmwAGImAeQwOAOhAAAAAAAAAAIAAAAAAAAAAAAAAAAAA==

> <PUBCHEM_IUPAC_OPENEYE_NAME>
4-(4-chlorophenyl)-1-[(Z)-4-(4-fluorophenyl)but-3-enyl]piperidin-4-ol

> <PUBCHEM_IUPAC_CAS_NAME>
4-(4-chlorophenyl)-1-[(Z)-4-(4-fluorophenyl)but-3-enyl]-4-piperidinol

> <PUBCHEM_IUPAC_NAME_MARKUP>
4-(4-chlorophenyl)-1-[(<I>Z</I>)-4-(4-fluorophenyl)but-3-enyl]piperidin-4-ol

> <PUBCHEM_IUPAC_NAME>
4-(4-chlorophenyl)-1-[(Z)-4-(4-fluorophenyl)but-3-enyl]piperidin-4-ol

> <PUBCHEM_IUPAC_SYSTEMATIC_NAME>
4-(4-chlorophenyl)-1-[(Z)-4-(4-fluorophenyl)but-3-enyl]piperidin-4-ol

> <PUBCHEM_IUPAC_TRADITIONAL_NAME>
4-(4-chlorophenyl)-1-[(Z)-4-(4-fluorophenyl)but-3-enyl]piperidin-4-ol

> <PUBCHEM_IUPAC_INCHI>
InChI=1S/C21H23ClFNO/c22-19-8-6-18(7-9-19)21(25)12-15-24(16-13-21)14-2-1-3-17-4-10-20(23)11-5-17/h1,3-11,25H,2,12-16H2/b3-1-

> <PUBCHEM_IUPAC_INCHIKEY>
DJBHHEQBMOYWRH-IWQZZHSRSA-N

> <PUBCHEM_XLOGP3_AA>
4.7

> <PUBCHEM_EXACT_MASS>
359.1452202

> <PUBCHEM_MOLECULAR_FORMULA>
C21H23ClFNO

> <PUBCHEM_MOLECULAR_WEIGHT>
359.9

> <PUBCHEM_OPENEYE_CAN_SMILES>
C1CN(CCC1(C2=CC=C(C=C2)Cl)O)CCC=CC3=CC=C(C=C3)F

> <PUBCHEM_OPENEYE_ISO_SMILES>
C1CN(CCC1(C2=CC=C(C=C2)Cl)O)CC/C=C\C3=CC=C(C=C3)F

> <PUBCHEM_CACTVS_TPSA>
23.5

> <PUBCHEM_MONOISOTOPIC_WEIGHT>
359.1452202

> <PUBCHEM_TOTAL_CHARGE>
0

> <PUBCHEM_HEAVY_ATOM_COUNT>
25

> <PUBCHEM_ATOM_DEF_STEREO_COUNT>
0

> <PUBCHEM_ATOM_UDEF_STEREO_COUNT>
0

> <PUBCHEM_BOND_DEF_STEREO_COUNT>
1

> <PUBCHEM_BOND_UDEF_STEREO_COUNT>
0

> <PUBCHEM_ISOTOPIC_ATOM_COUNT>
0

> <PUBCHEM_COMPONENT_COUNT>
1

> <PUBCHEM_CACTVS_TAUTO_COUNT>
-1

> <PUBCHEM_COORDINATE_TYPE>
1
5
255

> <PUBCHEM_BONDANNOTATIONS>
10  13  8
10  14  8
13  15  8
14  16  8
15  18  8
16  18  8
20  21  8
20  22  8
21  23  8
22  24  8
23  25  8
24  25  8

$$$$
