9870053
  -OEChem-09292322152D

 55 59  0     0  0  0  0  0  0999 V2000
    2.0000   -2.4932    0.0000 Cl  0  0  0  0  0  0  0  0  0  0  0  0
    6.9409   -0.7952    0.0000 S   0  0  0  0  0  0  0  0  0  0  0  0
    5.9718   -2.2840    0.0000 S   0  0  0  0  0  0  0  0  0  0  0  0
    6.4409    0.0708    0.0000 O   0  0  0  0  0  0  0  0  0  0  0  0
    7.4409   -1.6613    0.0000 O   0  0  0  0  0  0  0  0  0  0  0  0
   11.2874    0.7394    0.0000 N   0  0  0  0  0  0  0  0  0  0  0  0
   11.2642    2.7392    0.0000 N   0  0  0  0  0  0  0  0  0  0  0  0
    7.8069   -0.2952    0.0000 N   0  0  0  0  0  0  0  0  0  0  0  0
   11.2989   -2.3299    0.0000 N   0  0  0  0  0  0  0  0  0  0  0  0
   12.1476    1.2493    0.0000 C   0  0  0  0  0  0  0  0  0  0  0  0
   10.4156    1.2293    0.0000 C   0  0  0  0  0  0  0  0  0  0  0  0
   12.1360    2.2493    0.0000 C   0  0  0  0  0  0  0  0  0  0  0  0
   10.4041    2.2292    0.0000 C   0  0  0  0  0  0  0  0  0  0  0  0
   11.2989   -0.2606    0.0000 C   0  0  0  0  0  0  0  0  0  0  0  0
   10.4050   -0.7952    0.0000 C   0  0  0  0  0  0  0  0  0  0  0  0
   10.4050   -1.7952    0.0000 C   0  0  0  0  0  0  0  0  0  0  0  0
    5.1671   -0.8901    0.0000 C   0  0  0  0  0  0  0  0  0  0  0  0
   12.2050   -0.7744    0.0000 C   0  0  0  0  0  0  0  0  0  0  0  0
    9.5390   -0.2952    0.0000 C   0  0  0  0  0  0  0  0  0  0  0  0
    6.0749   -1.2952    0.0000 C   0  0  0  0  0  0  0  0  0  0  0  0
    8.6730   -0.7952    0.0000 C   0  0  0  0  0  0  0  0  0  0  0  0
    4.5000   -1.6271    0.0000 C   0  0  0  0  0  0  0  0  0  0  0  0
    4.9609    0.0884    0.0000 C   0  0  0  0  0  0  0  0  0  0  0  0
    5.0000   -2.4932    0.0000 C   0  0  0  0  0  0  0  0  0  0  0  0
    9.5390   -2.2952    0.0000 C   0  0  0  0  0  0  0  0  0  0  0  0
    8.6730   -1.7952    0.0000 C   0  0  0  0  0  0  0  0  0  0  0  0
   12.2050   -1.8160    0.0000 C   0  0  0  0  0  0  0  0  0  0  0  0
    3.5000   -1.6271    0.0000 C   0  0  0  0  0  0  0  0  0  0  0  0
    4.5000   -3.3592    0.0000 C   0  0  0  0  0  0  0  0  0  0  0  0
    4.0103    0.3990    0.0000 C   0  0  0  0  0  0  0  0  0  0  0  0
    3.0000   -2.4932    0.0000 C   0  0  0  0  0  0  0  0  0  0  0  0
    3.5000   -3.3592    0.0000 C   0  0  0  0  0  0  0  0  0  0  0  0
   12.3663    0.6692    0.0000 H   0  0  0  0  0  0  0  0  0  0  0  0
   12.7569    1.3641    0.0000 H   0  0  0  0  0  0  0  0  0  0  0  0
    9.8038    1.3299    0.0000 H   0  0  0  0  0  0  0  0  0  0  0  0
   10.2103    0.6443    0.0000 H   0  0  0  0  0  0  0  0  0  0  0  0
   12.7478    2.1487    0.0000 H   0  0  0  0  0  0  0  0  0  0  0  0
   12.3413    2.8343    0.0000 H   0  0  0  0  0  0  0  0  0  0  0  0
   10.1853    2.8094    0.0000 H   0  0  0  0  0  0  0  0  0  0  0  0
    9.7948    2.1145    0.0000 H   0  0  0  0  0  0  0  0  0  0  0  0
   11.2571    3.3592    0.0000 H   0  0  0  0  0  0  0  0  0  0  0  0
   12.7407   -0.4624    0.0000 H   0  0  0  0  0  0  0  0  0  0  0  0
    9.5390    0.3248    0.0000 H   0  0  0  0  0  0  0  0  0  0  0  0
    7.8069    0.3248    0.0000 H   0  0  0  0  0  0  0  0  0  0  0  0
    5.5805    0.1090    0.0000 H   0  0  0  0  0  0  0  0  0  0  0  0
    5.0482    0.7022    0.0000 H   0  0  0  0  0  0  0  0  0  0  0  0
    9.5390   -2.9152    0.0000 H   0  0  0  0  0  0  0  0  0  0  0  0
    8.1360   -2.1052    0.0000 H   0  0  0  0  0  0  0  0  0  0  0  0
   12.7407   -2.1281    0.0000 H   0  0  0  0  0  0  0  0  0  0  0  0
    3.1900   -1.0902    0.0000 H   0  0  0  0  0  0  0  0  0  0  0  0
    4.8100   -3.8961    0.0000 H   0  0  0  0  0  0  0  0  0  0  0  0
    4.2030    0.9884    0.0000 H   0  0  0  0  0  0  0  0  0  0  0  0
    3.4210    0.5917    0.0000 H   0  0  0  0  0  0  0  0  0  0  0  0
    3.8177   -0.1903    0.0000 H   0  0  0  0  0  0  0  0  0  0  0  0
    3.1900   -3.8961    0.0000 H   0  0  0  0  0  0  0  0  0  0  0  0
  1 31  1  0  0  0  0
  2  4  2  0  0  0  0
  2  5  2  0  0  0  0
  2  8  1  0  0  0  0
  2 20  1  0  0  0  0
  3 20  1  0  0  0  0
  3 24  1  0  0  0  0
  6 10  1  0  0  0  0
  6 11  1  0  0  0  0
  6 14  1  0  0  0  0
  7 12  1  0  0  0  0
  7 13  1  0  0  0  0
  7 41  1  0  0  0  0
  8 21  1  0  0  0  0
  8 44  1  0  0  0  0
  9 16  2  0  0  0  0
  9 27  1  0  0  0  0
 10 12  1  0  0  0  0
 10 33  1  0  0  0  0
 10 34  1  0  0  0  0
 11 13  1  0  0  0  0
 11 35  1  0  0  0  0
 11 36  1  0  0  0  0
 12 37  1  0  0  0  0
 12 38  1  0  0  0  0
 13 39  1  0  0  0  0
 13 40  1  0  0  0  0
 14 15  2  0  0  0  0
 14 18  1  0  0  0  0
 15 16  1  0  0  0  0
 15 19  1  0  0  0  0
 16 25  1  0  0  0  0
 17 20  2  0  0  0  0
 17 22  1  0  0  0  0
 17 23  1  0  0  0  0
 18 27  2  0  0  0  0
 18 42  1  0  0  0  0
 19 21  2  0  0  0  0
 19 43  1  0  0  0  0
 21 26  1  0  0  0  0
 22 24  2  0  0  0  0
 22 28  1  0  0  0  0
 23 30  1  0  0  0  0
 23 45  1  0  0  0  0
 23 46  1  0  0  0  0
 24 29  1  0  0  0  0
 25 26  2  0  0  0  0
 25 47  1  0  0  0  0
 26 48  1  0  0  0  0
 27 49  1  0  0  0  0
 28 31  2  0  0  0  0
 28 50  1  0  0  0  0
 29 32  2  0  0  0  0
 29 51  1  0  0  0  0
 30 52  1  0  0  0  0
 30 53  1  0  0  0  0
 30 54  1  0  0  0  0
 31 32  1  0  0  0  0
 32 55  1  0  0  0  0
M  END
> <PUBCHEM_COMPOUND_CID>
9870053

> <PUBCHEM_COMPOUND_CANONICALIZED>
1

> <PUBCHEM_CACTVS_COMPLEXITY>
745

> <PUBCHEM_CACTVS_HBOND_ACCEPTOR>
7

> <PUBCHEM_CACTVS_HBOND_DONOR>
2

> <PUBCHEM_CACTVS_ROTATABLE_BOND>
5

> <PUBCHEM_CACTVS_SUBSKEYS>
AAADceB7sABkAAAAAAAAAAAAAAAAASAAAAA8eIEAAAAAAEix/gAAHAYQQAAADArBXiQ+wfPIEAqkAzRnRHDDgbAxDzBI2Lg4ZpgIYOLh09GUJAhgkADoyAcQgMAOgAKAYAAGAAAABQDAAAwAAAAAAAAAAA==

> <PUBCHEM_IUPAC_OPENEYE_NAME>
5-chloro-3-ethyl-N-(4-piperazin-1-yl-6-quinolyl)benzothiophene-2-sulfonamide

> <PUBCHEM_IUPAC_CAS_NAME>
5-chloro-3-ethyl-N-[4-(1-piperazinyl)-6-quinolinyl]-1-benzothiophene-2-sulfonamide

> <PUBCHEM_IUPAC_NAME_MARKUP>
5-chloro-3-ethyl-<I>N</I>-(4-piperazin-1-ylquinolin-6-yl)-1-benzothiophene-2-sulfonamide

> <PUBCHEM_IUPAC_NAME>
5-chloro-3-ethyl-N-(4-piperazin-1-ylquinolin-6-yl)-1-benzothiophene-2-sulfonamide

> <PUBCHEM_IUPAC_SYSTEMATIC_NAME>
5-chloranyl-3-ethyl-N-(4-piperazin-1-ylquinolin-6-yl)-1-benzothiophene-2-sulfonamide

> <PUBCHEM_IUPAC_TRADITIONAL_NAME>
5-chloro-3-ethyl-N-(4-piperazino-6-quinolyl)benzothiophene-2-sulfonamide

> <PUBCHEM_IUPAC_INCHI>
InChI=1S/C23H23ClN4O2S2/c1-2-17-18-13-15(24)3-6-22(18)31-23(17)32(29,30)27-16-4-5-20-19(14-16)21(7-8-26-20)28-11-9-25-10-12-28/h3-8,13-14,25,27H,2,9-12H2,1H3

> <PUBCHEM_IUPAC_INCHIKEY>
VRQIPPKZDSCZIS-UHFFFAOYSA-N

> <PUBCHEM_XLOGP3_AA>
5

> <PUBCHEM_EXACT_MASS>
486.0950960

> <PUBCHEM_MOLECULAR_FORMULA>
C23H23ClN4O2S2

> <PUBCHEM_MOLECULAR_WEIGHT>
487.0

> <PUBCHEM_OPENEYE_CAN_SMILES>
CCC1=C(SC2=C1C=C(C=C2)Cl)S(=O)(=O)NC3=CC4=C(C=CN=C4C=C3)N5CCNCC5

> <PUBCHEM_OPENEYE_ISO_SMILES>
CCC1=C(SC2=C1C=C(C=C2)Cl)S(=O)(=O)NC3=CC4=C(C=CN=C4C=C3)N5CCNCC5

> <PUBCHEM_CACTVS_TPSA>
111

> <PUBCHEM_MONOISOTOPIC_WEIGHT>
486.0950960

> <PUBCHEM_TOTAL_CHARGE>
0

> <PUBCHEM_HEAVY_ATOM_COUNT>
32

> <PUBCHEM_ATOM_DEF_STEREO_COUNT>
0

> <PUBCHEM_ATOM_UDEF_STEREO_COUNT>
0

> <PUBCHEM_BOND_DEF_STEREO_COUNT>
0

> <PUBCHEM_BOND_UDEF_STEREO_COUNT>
0

> <PUBCHEM_ISOTOPIC_ATOM_COUNT>
0

> <PUBCHEM_COMPONENT_COUNT>
1

> <PUBCHEM_CACTVS_TAUTO_COUNT>
-1

> <PUBCHEM_COORDINATE_TYPE>
1
5
255

> <PUBCHEM_BONDANNOTATIONS>
14  15  8
14  18  8
15  16  8
15  19  8
16  25  8
17  20  8
17  22  8
18  27  8
19  21  8
21  26  8
22  24  8
22  28  8
24  29  8
25  26  8
28  31  8
29  32  8
3  20  8
3  24  8
31  32  8
9  16  8
9  27  8

$$$$
