168270182
  -OEChem-09292322452D

 58 60  0     0  0  0  0  0  0999 V2000
    4.9338    8.1200    0.0000 O   0  0  0  0  0  0  0  0  0  0  0  0
    8.0940    5.6373    0.0000 O   0  0  0  0  0  0  0  0  0  0  0  0
   10.6920    5.1373    0.0000 O   0  0  0  0  0  0  0  0  0  0  0  0
    8.9600    4.1373    0.0000 O   0  0  0  0  0  0  0  0  0  0  0  0
    9.8260    6.6373    0.0000 O   0  0  0  0  0  0  0  0  0  0  0  0
    4.0678    5.6200    0.0000 N   0  0  0  0  0  0  0  0  0  0  0  0
    4.0678    3.6200    0.0000 N   0  0  0  0  0  0  0  0  0  0  0  0
    3.2018    8.1200    0.0000 N   0  0  0  0  0  0  0  0  0  0  0  0
    3.2018    5.1200    0.0000 C   0  0  0  0  0  0  0  0  0  0  0  0
    4.9338    5.1200    0.0000 C   0  0  0  0  0  0  0  0  0  0  0  0
    4.0678    6.6200    0.0000 C   0  0  0  0  0  0  0  0  0  0  0  0
    3.2018    4.1200    0.0000 C   0  0  0  0  0  0  0  0  0  0  0  0
    4.9338    4.1200    0.0000 C   0  0  0  0  0  0  0  0  0  0  0  0
    3.2018    7.1200    0.0000 C   0  0  0  0  0  0  0  0  0  0  0  0
    2.3358    8.6200    0.0000 C   0  0  0  0  0  0  0  0  0  0  0  0
    4.0678    2.6200    0.0000 C   0  0  0  0  0  0  0  0  0  0  0  0
    3.2018   10.1200    0.0000 C   0  0  0  0  0  0  0  0  0  0  0  0
    2.3358    9.6200    0.0000 C   0  0  0  0  0  0  0  0  0  0  0  0
    4.0678    9.6200    0.0000 C   0  0  0  0  0  0  0  0  0  0  0  0
    4.0678    8.6200    0.0000 C   0  0  0  0  0  0  0  0  0  0  0  0
    1.4418    8.0853    0.0000 C   0  0  0  0  0  0  0  0  0  0  0  0
    4.9338    2.1200    0.0000 C   0  0  0  0  0  0  0  0  0  0  0  0
    3.2018    2.1200    0.0000 C   0  0  0  0  0  0  0  0  0  0  0  0
    1.4418   10.1547    0.0000 C   0  0  0  0  0  0  0  0  0  0  0  0
    0.5357    8.5992    0.0000 C   0  0  0  0  0  0  0  0  0  0  0  0
    0.5357    9.6408    0.0000 C   0  0  0  0  0  0  0  0  0  0  0  0
    4.9338    1.1200    0.0000 C   0  0  0  0  0  0  0  0  0  0  0  0
    3.2018    1.1200    0.0000 C   0  0  0  0  0  0  0  0  0  0  0  0
    4.0678    0.6200    0.0000 C   0  0  0  0  0  0  0  0  0  0  0  0
    8.9600    5.1373    0.0000 C   0  0  0  0  0  0  0  0  0  0  0  0
    9.8260    5.6373    0.0000 C   0  0  0  0  0  0  0  0  0  0  0  0
    2.9897    5.7026    0.0000 H   0  0  0  0  0  0  0  0  0  0  0  0
    2.5912    5.0123    0.0000 H   0  0  0  0  0  0  0  0  0  0  0  0
    5.5444    5.0123    0.0000 H   0  0  0  0  0  0  0  0  0  0  0  0
    5.1459    5.7026    0.0000 H   0  0  0  0  0  0  0  0  0  0  0  0
    4.6784    6.5123    0.0000 H   0  0  0  0  0  0  0  0  0  0  0  0
    4.2798    7.2026    0.0000 H   0  0  0  0  0  0  0  0  0  0  0  0
    2.5912    4.2277    0.0000 H   0  0  0  0  0  0  0  0  0  0  0  0
    2.9897    3.5374    0.0000 H   0  0  0  0  0  0  0  0  0  0  0  0
    5.1459    3.5374    0.0000 H   0  0  0  0  0  0  0  0  0  0  0  0
    5.5444    4.2277    0.0000 H   0  0  0  0  0  0  0  0  0  0  0  0
    2.5912    7.2277    0.0000 H   0  0  0  0  0  0  0  0  0  0  0  0
    2.9897    6.5374    0.0000 H   0  0  0  0  0  0  0  0  0  0  0  0
    3.6003   10.5949    0.0000 H   0  0  0  0  0  0  0  0  0  0  0  0
    2.8032   10.5949    0.0000 H   0  0  0  0  0  0  0  0  0  0  0  0
    4.6784    9.5123    0.0000 H   0  0  0  0  0  0  0  0  0  0  0  0
    4.2798   10.2026    0.0000 H   0  0  0  0  0  0  0  0  0  0  0  0
    1.4490    7.4654    0.0000 H   0  0  0  0  0  0  0  0  0  0  0  0
    5.4708    2.4300    0.0000 H   0  0  0  0  0  0  0  0  0  0  0  0
    2.6648    2.4300    0.0000 H   0  0  0  0  0  0  0  0  0  0  0  0
    1.4490   10.7746    0.0000 H   0  0  0  0  0  0  0  0  0  0  0  0
    0.0000    8.2871    0.0000 H   0  0  0  0  0  0  0  0  0  0  0  0
    0.0000    9.9529    0.0000 H   0  0  0  0  0  0  0  0  0  0  0  0
    5.4708    0.8100    0.0000 H   0  0  0  0  0  0  0  0  0  0  0  0
    2.6648    0.8100    0.0000 H   0  0  0  0  0  0  0  0  0  0  0  0
    4.0678    0.0000    0.0000 H   0  0  0  0  0  0  0  0  0  0  0  0
    7.5570    5.3273    0.0000 H   0  0  0  0  0  0  0  0  0  0  0  0
   11.2290    5.4473    0.0000 H   0  0  0  0  0  0  0  0  0  0  0  0
  1 20  2  0  0  0  0
  2 30  1  0  0  0  0
  2 57  1  0  0  0  0
  3 31  1  0  0  0  0
  3 58  1  0  0  0  0
  4 30  2  0  0  0  0
  5 31  2  0  0  0  0
  6  9  1  0  0  0  0
  6 10  1  0  0  0  0
  6 11  1  0  0  0  0
  7 12  1  0  0  0  0
  7 13  1  0  0  0  0
  7 16  1  0  0  0  0
  8 14  1  0  0  0  0
  8 15  1  0  0  0  0
  8 20  1  0  0  0  0
  9 12  1  0  0  0  0
  9 32  1  0  0  0  0
  9 33  1  0  0  0  0
 10 13  1  0  0  0  0
 10 34  1  0  0  0  0
 10 35  1  0  0  0  0
 11 14  1  0  0  0  0
 11 36  1  0  0  0  0
 11 37  1  0  0  0  0
 12 38  1  0  0  0  0
 12 39  1  0  0  0  0
 13 40  1  0  0  0  0
 13 41  1  0  0  0  0
 14 42  1  0  0  0  0
 14 43  1  0  0  0  0
 15 18  1  0  0  0  0
 15 21  2  0  0  0  0
 16 22  2  0  0  0  0
 16 23  1  0  0  0  0
 17 18  1  0  0  0  0
 17 19  1  0  0  0  0
 17 44  1  0  0  0  0
 17 45  1  0  0  0  0
 18 24  2  0  0  0  0
 19 20  1  0  0  0  0
 19 46  1  0  0  0  0
 19 47  1  0  0  0  0
 21 25  1  0  0  0  0
 21 48  1  0  0  0  0
 22 27  1  0  0  0  0
 22 49  1  0  0  0  0
 23 28  2  0  0  0  0
 23 50  1  0  0  0  0
 24 26  1  0  0  0  0
 24 51  1  0  0  0  0
 25 26  2  0  0  0  0
 25 52  1  0  0  0  0
 26 53  1  0  0  0  0
 27 29  2  0  0  0  0
 27 54  1  0  0  0  0
 28 29  1  0  0  0  0
 28 55  1  0  0  0  0
 29 56  1  0  0  0  0
 30 31  1  0  0  0  0
M  END
> <PUBCHEM_COMPOUND_CID>
168270182

> <PUBCHEM_COMPOUND_CANONICALIZED>
1

> <PUBCHEM_CACTVS_COMPLEXITY>
512

> <PUBCHEM_CACTVS_HBOND_ACCEPTOR>
7

> <PUBCHEM_CACTVS_HBOND_DONOR>
2

> <PUBCHEM_CACTVS_ROTATABLE_BOND>
5

> <PUBCHEM_CACTVS_SUBSKEYS>
AAADceB7OAAAAAAAAAAAAAAAAAAAAAAAAAA8eIEAAAAAAACxQAAAHgAACAAADAjBmAQwyIMAAgCIAiXSWAKCAAAhAgAIiAFIZIgJYDLAkZGUIAhghgDJyAcYiYCeAAAAAAACAAAAAAAAAAQAAAAAAAAAAA==

> <PUBCHEM_IUPAC_OPENEYE_NAME>
oxalic acid;1-[2-(4-phenylpiperazin-1-yl)ethyl]-3,4-dihydroquinolin-2-one

> <PUBCHEM_IUPAC_CAS_NAME>
oxalic acid;1-[2-(4-phenyl-1-piperazinyl)ethyl]-3,4-dihydroquinolin-2-one

> <PUBCHEM_IUPAC_NAME_MARKUP>
oxalic acid;1-[2-(4-phenylpiperazin-1-yl)ethyl]-3,4-dihydroquinolin-2-one

> <PUBCHEM_IUPAC_NAME>
oxalic acid;1-[2-(4-phenylpiperazin-1-yl)ethyl]-3,4-dihydroquinolin-2-one

> <PUBCHEM_IUPAC_SYSTEMATIC_NAME>
ethanedioic acid;1-[2-(4-phenylpiperazin-1-yl)ethyl]-3,4-dihydroquinolin-2-one

> <PUBCHEM_IUPAC_TRADITIONAL_NAME>
oxalic acid;1-[2-(4-phenylpiperazino)ethyl]-3,4-dihydrocarbostyril

> <PUBCHEM_IUPAC_INCHI>
InChI=1S/C21H25N3O.C2H2O4/c25-21-11-10-18-6-4-5-9-20(18)24(21)17-14-22-12-15-23(16-13-22)19-7-2-1-3-8-19;3-1(4)2(5)6/h1-9H,10-17H2;(H,3,4)(H,5,6)

> <PUBCHEM_IUPAC_INCHIKEY>
DEBVZIFHEKEUKP-UHFFFAOYSA-N

> <PUBCHEM_EXACT_MASS>
425.19507097

> <PUBCHEM_MOLECULAR_FORMULA>
C23H27N3O5

> <PUBCHEM_MOLECULAR_WEIGHT>
425.5

> <PUBCHEM_OPENEYE_CAN_SMILES>
C1CC(=O)N(C2=CC=CC=C21)CCN3CCN(CC3)C4=CC=CC=C4.C(=O)(C(=O)O)O

> <PUBCHEM_OPENEYE_ISO_SMILES>
C1CC(=O)N(C2=CC=CC=C21)CCN3CCN(CC3)C4=CC=CC=C4.C(=O)(C(=O)O)O

> <PUBCHEM_CACTVS_TPSA>
101

> <PUBCHEM_MONOISOTOPIC_WEIGHT>
425.19507097

> <PUBCHEM_TOTAL_CHARGE>
0

> <PUBCHEM_HEAVY_ATOM_COUNT>
31

> <PUBCHEM_ATOM_DEF_STEREO_COUNT>
0

> <PUBCHEM_ATOM_UDEF_STEREO_COUNT>
0

> <PUBCHEM_BOND_DEF_STEREO_COUNT>
0

> <PUBCHEM_BOND_UDEF_STEREO_COUNT>
0

> <PUBCHEM_ISOTOPIC_ATOM_COUNT>
0

> <PUBCHEM_COMPONENT_COUNT>
2

> <PUBCHEM_CACTVS_TAUTO_COUNT>
-1

> <PUBCHEM_COORDINATE_TYPE>
1
5
255

> <PUBCHEM_BONDANNOTATIONS>
15  18  8
15  21  8
16  22  8
16  23  8
18  24  8
21  25  8
22  27  8
23  28  8
24  26  8
25  26  8
27  29  8
28  29  8

$$$$
