45260706
  -OEChem-09292322192D

 50 52  0     0  0  0  0  0  0999 V2000
    8.2003    5.1944    0.0000 Cl  0  0  0  0  0  0  0  0  0  0  0  0
    3.0653    7.6200    0.0000 O   0  0  0  0  0  0  0  0  0  0  0  0
    5.6634    9.1200    0.0000 O   0  0  0  0  0  0  0  0  0  0  0  0
    1.2857    8.7133    0.0000 O   0  0  0  0  0  0  0  0  0  0  0  0
    3.9313    5.1200    0.0000 N   0  0  0  0  0  0  0  0  0  0  0  0
    3.9313    7.1200    0.0000 C   0  0  0  0  0  0  0  0  0  0  0  0
    3.0653    6.6200    0.0000 C   0  0  0  0  0  0  0  0  0  0  0  0
    4.7974    6.6200    0.0000 C   0  0  0  0  0  0  0  0  0  0  0  0
    3.0653    5.6200    0.0000 C   0  0  0  0  0  0  0  0  0  0  0  0
    4.7974    5.6200    0.0000 C   0  0  0  0  0  0  0  0  0  0  0  0
    4.7974    7.6200    0.0000 C   0  0  0  0  0  0  0  0  0  0  0  0
    3.9313    4.1200    0.0000 C   0  0  0  0  0  0  0  0  0  0  0  0
    4.7974    8.6200    0.0000 C   0  0  0  0  0  0  0  0  0  0  0  0
    3.0653    8.6200    0.0000 C   0  0  0  0  0  0  0  0  0  0  0  0
    4.7974    3.6200    0.0000 C   0  0  0  0  0  0  0  0  0  0  0  0
    3.9313    9.1200    0.0000 C   0  0  0  0  0  0  0  0  0  0  0  0
    2.1993    9.1200    0.0000 C   0  0  0  0  0  0  0  0  0  0  0  0
    4.7974    2.6200    0.0000 C   0  0  0  0  0  0  0  0  0  0  0  0
    2.0948   10.1145    0.0000 C   0  0  0  0  0  0  0  0  0  0  0  0
    3.9313    2.1200    0.0000 C   0  0  0  0  0  0  0  0  0  0  0  0
    5.6634    2.1200    0.0000 C   0  0  0  0  0  0  0  0  0  0  0  0
    1.1166   10.3224    0.0000 C   0  0  0  0  0  0  0  0  0  0  0  0
    0.6166    9.4564    0.0000 C   0  0  0  0  0  0  0  0  0  0  0  0
    3.9313    1.1200    0.0000 C   0  0  0  0  0  0  0  0  0  0  0  0
    5.6634    1.1200    0.0000 C   0  0  0  0  0  0  0  0  0  0  0  0
    4.7974    0.6200    0.0000 C   0  0  0  0  0  0  0  0  0  0  0  0
    2.8532    7.2026    0.0000 H   0  0  0  0  0  0  0  0  0  0  0  0
    2.4547    6.5123    0.0000 H   0  0  0  0  0  0  0  0  0  0  0  0
    5.4079    6.5123    0.0000 H   0  0  0  0  0  0  0  0  0  0  0  0
    5.0094    7.2026    0.0000 H   0  0  0  0  0  0  0  0  0  0  0  0
    2.4547    5.7277    0.0000 H   0  0  0  0  0  0  0  0  0  0  0  0
    2.8532    5.0374    0.0000 H   0  0  0  0  0  0  0  0  0  0  0  0
    5.0094    5.0374    0.0000 H   0  0  0  0  0  0  0  0  0  0  0  0
    5.4079    5.7277    0.0000 H   0  0  0  0  0  0  0  0  0  0  0  0
    5.0094    7.0374    0.0000 H   0  0  0  0  0  0  0  0  0  0  0  0
    5.4079    7.7277    0.0000 H   0  0  0  0  0  0  0  0  0  0  0  0
    3.3208    4.2277    0.0000 H   0  0  0  0  0  0  0  0  0  0  0  0
    3.7193    3.5374    0.0000 H   0  0  0  0  0  0  0  0  0  0  0  0
    5.4079    3.5123    0.0000 H   0  0  0  0  0  0  0  0  0  0  0  0
    5.0094    4.2026    0.0000 H   0  0  0  0  0  0  0  0  0  0  0  0
    3.9313    9.7400    0.0000 H   0  0  0  0  0  0  0  0  0  0  0  0
    2.5555   10.5294    0.0000 H   0  0  0  0  0  0  0  0  0  0  0  0
    3.3944    2.4300    0.0000 H   0  0  0  0  0  0  0  0  0  0  0  0
    6.2003    2.4300    0.0000 H   0  0  0  0  0  0  0  0  0  0  0  0
    0.8644   10.8888    0.0000 H   0  0  0  0  0  0  0  0  0  0  0  0
    0.0000    9.3916    0.0000 H   0  0  0  0  0  0  0  0  0  0  0  0
    3.3944    0.8100    0.0000 H   0  0  0  0  0  0  0  0  0  0  0  0
    6.2003    0.8100    0.0000 H   0  0  0  0  0  0  0  0  0  0  0  0
    4.7974    0.0000    0.0000 H   0  0  0  0  0  0  0  0  0  0  0  0
    9.2003    5.1944    0.0000 H   0  0  0  0  0  0  0  0  0  0  0  0
  1 50  1  0  0  0  0
  2  6  1  0  0  0  0
  2 14  1  0  0  0  0
  3 13  2  0  0  0  0
  4 17  1  0  0  0  0
  4 23  1  0  0  0  0
  5  9  1  0  0  0  0
  5 10  1  0  0  0  0
  5 12  1  0  0  0  0
  6  7  1  0  0  0  0
  6  8  1  0  0  0  0
  6 11  1  0  0  0  0
  7  9  1  0  0  0  0
  7 27  1  0  0  0  0
  7 28  1  0  0  0  0
  8 10  1  0  0  0  0
  8 29  1  0  0  0  0
  8 30  1  0  0  0  0
  9 31  1  0  0  0  0
  9 32  1  0  0  0  0
 10 33  1  0  0  0  0
 10 34  1  0  0  0  0
 11 13  1  0  0  0  0
 11 35  1  0  0  0  0
 11 36  1  0  0  0  0
 12 15  1  0  0  0  0
 12 37  1  0  0  0  0
 12 38  1  0  0  0  0
 13 16  1  0  0  0  0
 14 16  2  0  0  0  0
 14 17  1  0  0  0  0
 15 18  1  0  0  0  0
 15 39  1  0  0  0  0
 15 40  1  0  0  0  0
 16 41  1  0  0  0  0
 17 19  2  0  0  0  0
 18 20  2  0  0  0  0
 18 21  1  0  0  0  0
 19 22  1  0  0  0  0
 19 42  1  0  0  0  0
 20 24  1  0  0  0  0
 20 43  1  0  0  0  0
 21 25  2  0  0  0  0
 21 44  1  0  0  0  0
 22 23  2  0  0  0  0
 22 45  1  0  0  0  0
 23 46  1  0  0  0  0
 24 26  2  0  0  0  0
 24 47  1  0  0  0  0
 25 26  1  0  0  0  0
 25 48  1  0  0  0  0
 26 49  1  0  0  0  0
M  END
> <PUBCHEM_COMPOUND_CID>
45260706

> <PUBCHEM_COMPOUND_CANONICALIZED>
1

> <PUBCHEM_CACTVS_COMPLEXITY>
501

> <PUBCHEM_CACTVS_HBOND_ACCEPTOR>
4

> <PUBCHEM_CACTVS_HBOND_DONOR>
1

> <PUBCHEM_CACTVS_ROTATABLE_BOND>
4

> <PUBCHEM_CACTVS_SUBSKEYS>
AAADceB6MAAEAAAAAAAAAAAAAAAAASAAAAA8QIAAAAAAAAABwAAAHgAAAAAADEThmAYwBIMABECIAqhSgAICCAAkIAAIiAFOCMgNJjaEtR+GOSCm4BGKqYeYpYgOAAAAAAAAAAAAAAAAAAAAAAAAAAAAAA==

> <PUBCHEM_IUPAC_OPENEYE_NAME>
2-(2-furyl)-9-(2-phenylethyl)-1-oxa-9-azaspiro[5.5]undec-2-en-4-one;hydrochloride

> <PUBCHEM_IUPAC_CAS_NAME>
2-(2-furanyl)-9-(2-phenylethyl)-1-oxa-9-azaspiro[5.5]undec-2-en-4-one;hydrochloride

> <PUBCHEM_IUPAC_NAME_MARKUP>
2-(furan-2-yl)-9-(2-phenylethyl)-1-oxa-9-azaspiro[5.5]undec-2-en-4-one;hydrochloride

> <PUBCHEM_IUPAC_NAME>
2-(furan-2-yl)-9-(2-phenylethyl)-1-oxa-9-azaspiro[5.5]undec-2-en-4-one;hydrochloride

> <PUBCHEM_IUPAC_SYSTEMATIC_NAME>
2-(furan-2-yl)-9-(2-phenylethyl)-1-oxa-9-azaspiro[5.5]undec-2-en-4-one;hydrochloride

> <PUBCHEM_IUPAC_TRADITIONAL_NAME>
2-(2-furyl)-9-phenethyl-1-oxa-9-azaspiro[5.5]undec-2-en-4-one;hydrochloride

> <PUBCHEM_IUPAC_INCHI>
InChI=1S/C21H23NO3.ClH/c23-18-15-20(19-7-4-14-24-19)25-21(16-18)9-12-22(13-10-21)11-8-17-5-2-1-3-6-17;/h1-7,14-15H,8-13,16H2;1H

> <PUBCHEM_IUPAC_INCHIKEY>
UQJSIROSFCJYDY-UHFFFAOYSA-N

> <PUBCHEM_EXACT_MASS>
373.1444713

> <PUBCHEM_MOLECULAR_FORMULA>
C21H24ClNO3

> <PUBCHEM_MOLECULAR_WEIGHT>
373.9

> <PUBCHEM_OPENEYE_CAN_SMILES>
C1CN(CCC12CC(=O)C=C(O2)C3=CC=CO3)CCC4=CC=CC=C4.Cl

> <PUBCHEM_OPENEYE_ISO_SMILES>
C1CN(CCC12CC(=O)C=C(O2)C3=CC=CO3)CCC4=CC=CC=C4.Cl

> <PUBCHEM_CACTVS_TPSA>
42.7

> <PUBCHEM_MONOISOTOPIC_WEIGHT>
373.1444713

> <PUBCHEM_TOTAL_CHARGE>
0

> <PUBCHEM_HEAVY_ATOM_COUNT>
26

> <PUBCHEM_ATOM_DEF_STEREO_COUNT>
0

> <PUBCHEM_ATOM_UDEF_STEREO_COUNT>
0

> <PUBCHEM_BOND_DEF_STEREO_COUNT>
0

> <PUBCHEM_BOND_UDEF_STEREO_COUNT>
0

> <PUBCHEM_ISOTOPIC_ATOM_COUNT>
0

> <PUBCHEM_COMPONENT_COUNT>
2

> <PUBCHEM_CACTVS_TAUTO_COUNT>
-1

> <PUBCHEM_COORDINATE_TYPE>
1
5
255

> <PUBCHEM_BONDANNOTATIONS>
17  19  8
18  20  8
18  21  8
19  22  8
20  24  8
21  25  8
22  23  8
24  26  8
25  26  8
4  17  8
4  23  8

$$$$
