71457372
  -OEChem-09292322022D

 55 56  0     1  0  0  0  0  0999 V2000
    2.0000   -4.1900    0.0000 O   0  0  0  0  0  0  0  0  0  0  0  0
    4.5981    0.3100    0.0000 N   0  0  3  0  0  0  0  0  0  0  0  0
    3.7320    0.8100    0.0000 C   0  0  0  0  0  0  0  0  0  0  0  0
    3.7320    1.8100    0.0000 C   0  0  0  0  0  0  0  0  0  0  0  0
    4.5981   -0.6900    0.0000 C   0  0  0  0  0  0  0  0  0  0  0  0
    5.4641    0.8100    0.0000 C   0  0  0  0  0  0  0  0  0  0  0  0
    2.8660    2.3100    0.0000 C   0  0  0  0  0  0  0  0  0  0  0  0
    2.8660    3.3100    0.0000 C   0  0  0  0  0  0  0  0  0  0  0  0
    3.7320   -1.1900    0.0000 C   0  0  0  0  0  0  0  0  0  0  0  0
    5.4641    1.8100    0.0000 C   0  0  0  0  0  0  0  0  0  0  0  0
    2.0000    3.8100    0.0000 C   0  0  0  0  0  0  0  0  0  0  0  0
    3.7320   -2.1900    0.0000 C   0  0  0  0  0  0  0  0  0  0  0  0
    6.3301    2.3100    0.0000 C   0  0  0  0  0  0  0  0  0  0  0  0
    2.0000    4.8100    0.0000 C   0  0  0  0  0  0  0  0  0  0  0  0
    2.8660   -2.6900    0.0000 C   0  0  0  0  0  0  0  0  0  0  0  0
    4.5981   -2.6900    0.0000 C   0  0  0  0  0  0  0  0  0  0  0  0
    6.3301    3.3100    0.0000 C   0  0  0  0  0  0  0  0  0  0  0  0
    7.1962    1.8100    0.0000 C   0  0  0  0  0  0  0  0  0  0  0  0
    2.8660   -3.6900    0.0000 C   0  0  0  0  0  0  0  0  0  0  0  0
    4.5981   -3.6900    0.0000 C   0  0  0  0  0  0  0  0  0  0  0  0
    7.1962    3.8100    0.0000 C   0  0  0  0  0  0  0  0  0  0  0  0
    8.0622    2.3100    0.0000 C   0  0  0  0  0  0  0  0  0  0  0  0
    3.7320   -4.1900    0.0000 C   0  0  0  0  0  0  0  0  0  0  0  0
    8.0622    3.3100    0.0000 C   0  0  0  0  0  0  0  0  0  0  0  0
    3.1215    0.9177    0.0000 H   0  0  0  0  0  0  0  0  0  0  0  0
    3.5200    0.2274    0.0000 H   0  0  0  0  0  0  0  0  0  0  0  0
    4.3426    1.7023    0.0000 H   0  0  0  0  0  0  0  0  0  0  0  0
    3.9441    2.3926    0.0000 H   0  0  0  0  0  0  0  0  0  0  0  0
    4.8101   -1.2726    0.0000 H   0  0  0  0  0  0  0  0  0  0  0  0
    5.2087   -0.5823    0.0000 H   0  0  0  0  0  0  0  0  0  0  0  0
    5.6762    0.2274    0.0000 H   0  0  0  0  0  0  0  0  0  0  0  0
    6.0747    0.9177    0.0000 H   0  0  0  0  0  0  0  0  0  0  0  0
    2.2554    2.4177    0.0000 H   0  0  0  0  0  0  0  0  0  0  0  0
    2.6540    1.7274    0.0000 H   0  0  0  0  0  0  0  0  0  0  0  0
    3.4766    3.2023    0.0000 H   0  0  0  0  0  0  0  0  0  0  0  0
    3.0781    3.8926    0.0000 H   0  0  0  0  0  0  0  0  0  0  0  0
    3.5200   -0.6074    0.0000 H   0  0  0  0  0  0  0  0  0  0  0  0
    3.1215   -1.2977    0.0000 H   0  0  0  0  0  0  0  0  0  0  0  0
    5.2520    2.3926    0.0000 H   0  0  0  0  0  0  0  0  0  0  0  0
    4.8535    1.7023    0.0000 H   0  0  0  0  0  0  0  0  0  0  0  0
    1.3894    3.9177    0.0000 H   0  0  0  0  0  0  0  0  0  0  0  0
    1.7880    3.2274    0.0000 H   0  0  0  0  0  0  0  0  0  0  0  0
    2.6200    4.8100    0.0000 H   0  0  0  0  0  0  0  0  0  0  0  0
    2.0000    5.4300    0.0000 H   0  0  0  0  0  0  0  0  0  0  0  0
    1.3800    4.8100    0.0000 H   0  0  0  0  0  0  0  0  0  0  0  0
    2.3291   -2.3800    0.0000 H   0  0  0  0  0  0  0  0  0  0  0  0
    5.1350   -2.3800    0.0000 H   0  0  0  0  0  0  0  0  0  0  0  0
    5.7932    3.6200    0.0000 H   0  0  0  0  0  0  0  0  0  0  0  0
    7.1962    1.1900    0.0000 H   0  0  0  0  0  0  0  0  0  0  0  0
    5.1350   -4.0000    0.0000 H   0  0  0  0  0  0  0  0  0  0  0  0
    7.1962    4.4300    0.0000 H   0  0  0  0  0  0  0  0  0  0  0  0
    8.5991    2.0000    0.0000 H   0  0  0  0  0  0  0  0  0  0  0  0
    3.7320   -4.8100    0.0000 H   0  0  0  0  0  0  0  0  0  0  0  0
    8.5991    3.6200    0.0000 H   0  0  0  0  0  0  0  0  0  0  0  0
    2.0000   -4.8100    0.0000 H   0  0  0  0  0  0  0  0  0  0  0  0
  1 19  1  0  0  0  0
  1 55  1  0  0  0  0
  2  3  1  0  0  0  0
  2  5  1  0  0  0  0
  2  6  1  0  0  0  0
  3  4  1  0  0  0  0
  3 25  1  0  0  0  0
  3 26  1  0  0  0  0
  4  7  1  0  0  0  0
  4 27  1  0  0  0  0
  4 28  1  0  0  0  0
  5  9  1  0  0  0  0
  5 29  1  0  0  0  0
  5 30  1  0  0  0  0
  6 10  1  0  0  0  0
  6 31  1  0  0  0  0
  6 32  1  0  0  0  0
  7  8  1  0  0  0  0
  7 33  1  0  0  0  0
  7 34  1  0  0  0  0
  8 11  1  0  0  0  0
  8 35  1  0  0  0  0
  8 36  1  0  0  0  0
  9 12  1  0  0  0  0
  9 37  1  0  0  0  0
  9 38  1  0  0  0  0
 10 13  1  0  0  0  0
 10 39  1  0  0  0  0
 10 40  1  0  0  0  0
 11 14  1  0  0  0  0
 11 41  1  0  0  0  0
 11 42  1  0  0  0  0
 12 15  2  0  0  0  0
 12 16  1  0  0  0  0
 13 17  2  0  0  0  0
 13 18  1  0  0  0  0
 14 43  1  0  0  0  0
 14 44  1  0  0  0  0
 14 45  1  0  0  0  0
 15 19  1  0  0  0  0
 15 46  1  0  0  0  0
 16 20  2  0  0  0  0
 16 47  1  0  0  0  0
 17 21  1  0  0  0  0
 17 48  1  0  0  0  0
 18 22  2  0  0  0  0
 18 49  1  0  0  0  0
 19 23  2  0  0  0  0
 20 23  1  0  0  0  0
 20 50  1  0  0  0  0
 21 24  2  0  0  0  0
 21 51  1  0  0  0  0
 22 24  1  0  0  0  0
 22 52  1  0  0  0  0
 23 53  1  0  0  0  0
 24 54  1  0  0  0  0
M  END
> <PUBCHEM_COMPOUND_CID>
71457372

> <PUBCHEM_COMPOUND_CANONICALIZED>
1

> <PUBCHEM_CACTVS_COMPLEXITY>
300

> <PUBCHEM_CACTVS_HBOND_ACCEPTOR>
2

> <PUBCHEM_CACTVS_HBOND_DONOR>
1

> <PUBCHEM_CACTVS_ROTATABLE_BOND>
11

> <PUBCHEM_CACTVS_SUBSKEYS>
AAADceB6IAAAAAAAAAAAAAAAAAAAAAAAAAAwYAAAAAAAAAABQAAAHgAACAAADATBmAQyBoMAAgCAAiBCAAACAAAgIAAIiAAOCIgIJiKCkROEcAAkwBGImAeQ0LIOAAABAAAAAAAAAAIAAAAAAAAAAAAAAA==

> <PUBCHEM_IUPAC_OPENEYE_NAME>
3-[2-[hexyl(2-phenylethyl)amino]ethyl]phenol

> <PUBCHEM_IUPAC_CAS_NAME>
3-[2-[hexyl(2-phenylethyl)amino]ethyl]phenol

> <PUBCHEM_IUPAC_NAME_MARKUP>
3-[2-[hexyl(2-phenylethyl)amino]ethyl]phenol

> <PUBCHEM_IUPAC_NAME>
3-[2-[hexyl(2-phenylethyl)amino]ethyl]phenol

> <PUBCHEM_IUPAC_SYSTEMATIC_NAME>
3-[2-[hexyl(2-phenylethyl)amino]ethyl]phenol

> <PUBCHEM_IUPAC_TRADITIONAL_NAME>
3-[2-[hexyl(phenethyl)amino]ethyl]phenol

> <PUBCHEM_IUPAC_INCHI>
InChI=1S/C22H31NO/c1-2-3-4-8-16-23(17-14-20-10-6-5-7-11-20)18-15-21-12-9-13-22(24)19-21/h5-7,9-13,19,24H,2-4,8,14-18H2,1H3

> <PUBCHEM_IUPAC_INCHIKEY>
XNXKEYCDXWQUQU-UHFFFAOYSA-N

> <PUBCHEM_XLOGP3_AA>
6.2

> <PUBCHEM_EXACT_MASS>
325.240564612

> <PUBCHEM_MOLECULAR_FORMULA>
C22H31NO

> <PUBCHEM_MOLECULAR_WEIGHT>
325.5

> <PUBCHEM_OPENEYE_CAN_SMILES>
CCCCCCN(CCC1=CC=CC=C1)CCC2=CC(=CC=C2)O

> <PUBCHEM_OPENEYE_ISO_SMILES>
CCCCCCN(CCC1=CC=CC=C1)CCC2=CC(=CC=C2)O

> <PUBCHEM_CACTVS_TPSA>
23.5

> <PUBCHEM_MONOISOTOPIC_WEIGHT>
325.240564612

> <PUBCHEM_TOTAL_CHARGE>
0

> <PUBCHEM_HEAVY_ATOM_COUNT>
24

> <PUBCHEM_ATOM_DEF_STEREO_COUNT>
0

> <PUBCHEM_ATOM_UDEF_STEREO_COUNT>
0

> <PUBCHEM_BOND_DEF_STEREO_COUNT>
0

> <PUBCHEM_BOND_UDEF_STEREO_COUNT>
0

> <PUBCHEM_ISOTOPIC_ATOM_COUNT>
0

> <PUBCHEM_COMPONENT_COUNT>
1

> <PUBCHEM_CACTVS_TAUTO_COUNT>
-1

> <PUBCHEM_COORDINATE_TYPE>
1
5
255

> <PUBCHEM_BONDANNOTATIONS>
12  15  8
12  16  8
13  17  8
13  18  8
15  19  8
16  20  8
17  21  8
18  22  8
19  23  8
20  23  8
21  24  8
22  24  8

$$$$
