9826801
  -OEChem-09292322312D

 65 70  0     0  0  0  0  0  0999 V2000
    9.3641   -6.2892    0.0000 F   0  0  0  0  0  0  0  0  0  0  0  0
    9.0669    4.8929    0.0000 O   0  0  0  0  0  0  0  0  0  0  0  0
    9.0535    1.9739    0.0000 N   0  0  0  0  0  0  0  0  0  0  0  0
    8.1215   -2.4871    0.0000 N   0  0  0  0  0  0  0  0  0  0  0  0
   10.6533    4.0812    0.0000 N   0  0  0  0  0  0  0  0  0  0  0  0
   10.6561    5.6992    0.0000 N   0  0  0  0  0  0  0  0  0  0  0  0
    3.6636   -1.0891    0.0000 N   0  0  0  0  0  0  0  0  0  0  0  0
    4.4727    0.3121    0.0000 N   0  0  0  0  0  0  0  0  0  0  0  0
    2.9945   -0.3460    0.0000 N   0  0  0  0  0  0  0  0  0  0  0  0
    3.4945    0.5201    0.0000 N   0  0  0  0  0  0  0  0  0  0  0  0
    8.4322    0.0729    0.0000 C   0  0  0  0  0  0  0  0  0  0  0  0
    7.7643    0.8172    0.0000 C   0  0  0  0  0  0  0  0  0  0  0  0
    9.4107    0.2791    0.0000 C   0  0  0  0  0  0  0  0  0  0  0  0
    8.0750    1.7677    0.0000 C   0  0  0  0  0  0  0  0  0  0  0  0
    9.7213    1.2296    0.0000 C   0  0  0  0  0  0  0  0  0  0  0  0
    8.1215   -0.8776    0.0000 C   0  0  0  0  0  0  0  0  0  0  0  0
    9.3641    2.9244    0.0000 C   0  0  0  0  0  0  0  0  0  0  0  0
    7.1753   -1.1824    0.0000 C   0  0  0  0  0  0  0  0  0  0  0  0
   10.3426    3.1306    0.0000 C   0  0  0  0  0  0  0  0  0  0  0  0
    8.7051   -1.6824    0.0000 C   0  0  0  0  0  0  0  0  0  0  0  0
    7.1753   -2.1824    0.0000 C   0  0  0  0  0  0  0  0  0  0  0  0
    6.3092   -0.6824    0.0000 C   0  0  0  0  0  0  0  0  0  0  0  0
   11.6049    4.3886    0.0000 C   0  0  0  0  0  0  0  0  0  0  0  0
    6.3092   -2.6824    0.0000 C   0  0  0  0  0  0  0  0  0  0  0  0
    8.4322   -3.4376    0.0000 C   0  0  0  0  0  0  0  0  0  0  0  0
   11.6066    5.3885    0.0000 C   0  0  0  0  0  0  0  0  0  0  0  0
    5.4432   -1.1824    0.0000 C   0  0  0  0  0  0  0  0  0  0  0  0
   10.0669    4.8912    0.0000 C   0  0  0  0  0  0  0  0  0  0  0  0
    5.4432   -2.1824    0.0000 C   0  0  0  0  0  0  0  0  0  0  0  0
    9.4107   -3.6438    0.0000 C   0  0  0  0  0  0  0  0  0  0  0  0
    7.7643   -4.1819    0.0000 C   0  0  0  0  0  0  0  0  0  0  0  0
    4.5772   -0.6824    0.0000 C   0  0  0  0  0  0  0  0  0  0  0  0
    9.7213   -4.5944    0.0000 C   0  0  0  0  0  0  0  0  0  0  0  0
    8.0750   -5.1325    0.0000 C   0  0  0  0  0  0  0  0  0  0  0  0
    9.0535   -5.3387    0.0000 C   0  0  0  0  0  0  0  0  0  0  0  0
    2.0000   -0.4505    0.0000 C   0  0  0  0  0  0  0  0  0  0  0  0
    8.8462   -0.3886    0.0000 H   0  0  0  0  0  0  0  0  0  0  0  0
    7.2174    1.1092    0.0000 H   0  0  0  0  0  0  0  0  0  0  0  0
    7.3818    0.3293    0.0000 H   0  0  0  0  0  0  0  0  0  0  0  0
    9.4312   -0.3406    0.0000 H   0  0  0  0  0  0  0  0  0  0  0  0
   10.0245    0.1917    0.0000 H   0  0  0  0  0  0  0  0  0  0  0  0
    8.0544    2.3874    0.0000 H   0  0  0  0  0  0  0  0  0  0  0  0
    7.4612    1.8550    0.0000 H   0  0  0  0  0  0  0  0  0  0  0  0
   10.2682    0.9376    0.0000 H   0  0  0  0  0  0  0  0  0  0  0  0
   10.1039    1.7175    0.0000 H   0  0  0  0  0  0  0  0  0  0  0  0
    9.3436    3.5441    0.0000 H   0  0  0  0  0  0  0  0  0  0  0  0
    8.7503    3.0118    0.0000 H   0  0  0  0  0  0  0  0  0  0  0  0
   10.3632    2.5110    0.0000 H   0  0  0  0  0  0  0  0  0  0  0  0
   10.9565    3.0433    0.0000 H   0  0  0  0  0  0  0  0  0  0  0  0
    9.3251   -1.6824    0.0000 H   0  0  0  0  0  0  0  0  0  0  0  0
    6.3092   -0.0624    0.0000 H   0  0  0  0  0  0  0  0  0  0  0  0
   11.7328    3.7819    0.0000 H   0  0  0  0  0  0  0  0  0  0  0  0
   12.2216    4.4523    0.0000 H   0  0  0  0  0  0  0  0  0  0  0  0
    6.3092   -3.3024    0.0000 H   0  0  0  0  0  0  0  0  0  0  0  0
   12.2231    5.3227    0.0000 H   0  0  0  0  0  0  0  0  0  0  0  0
   11.7366    5.9948    0.0000 H   0  0  0  0  0  0  0  0  0  0  0  0
    4.9063   -2.4924    0.0000 H   0  0  0  0  0  0  0  0  0  0  0  0
   10.4655    6.2892    0.0000 H   0  0  0  0  0  0  0  0  0  0  0  0
    9.8247   -3.1824    0.0000 H   0  0  0  0  0  0  0  0  0  0  0  0
    7.1576   -4.0541    0.0000 H   0  0  0  0  0  0  0  0  0  0  0  0
   10.3280   -4.7222    0.0000 H   0  0  0  0  0  0  0  0  0  0  0  0
    7.6609   -5.5939    0.0000 H   0  0  0  0  0  0  0  0  0  0  0  0
    1.9352    0.1661    0.0000 H   0  0  0  0  0  0  0  0  0  0  0  0
    1.3834   -0.5153    0.0000 H   0  0  0  0  0  0  0  0  0  0  0  0
    2.0648   -1.0671    0.0000 H   0  0  0  0  0  0  0  0  0  0  0  0
  1 35  1  0  0  0  0
  2 28  2  0  0  0  0
  3 14  1  0  0  0  0
  3 15  1  0  0  0  0
  3 17  1  0  0  0  0
  4 20  1  0  0  0  0
  4 21  1  0  0  0  0
  4 25  1  0  0  0  0
  5 19  1  0  0  0  0
  5 23  1  0  0  0  0
  5 28  1  0  0  0  0
  6 26  1  0  0  0  0
  6 28  1  0  0  0  0
  6 58  1  0  0  0  0
  7  9  1  0  0  0  0
  7 32  2  0  0  0  0
  8 10  2  0  0  0  0
  8 32  1  0  0  0  0
  9 10  1  0  0  0  0
  9 36  1  0  0  0  0
 11 12  1  0  0  0  0
 11 13  1  0  0  0  0
 11 16  1  0  0  0  0
 11 37  1  0  0  0  0
 12 14  1  0  0  0  0
 12 38  1  0  0  0  0
 12 39  1  0  0  0  0
 13 15  1  0  0  0  0
 13 40  1  0  0  0  0
 13 41  1  0  0  0  0
 14 42  1  0  0  0  0
 14 43  1  0  0  0  0
 15 44  1  0  0  0  0
 15 45  1  0  0  0  0
 16 18  1  0  0  0  0
 16 20  2  0  0  0  0
 17 19  1  0  0  0  0
 17 46  1  0  0  0  0
 17 47  1  0  0  0  0
 18 21  2  0  0  0  0
 18 22  1  0  0  0  0
 19 48  1  0  0  0  0
 19 49  1  0  0  0  0
 20 50  1  0  0  0  0
 21 24  1  0  0  0  0
 22 27  2  0  0  0  0
 22 51  1  0  0  0  0
 23 26  1  0  0  0  0
 23 52  1  0  0  0  0
 23 53  1  0  0  0  0
 24 29  2  0  0  0  0
 24 54  1  0  0  0  0
 25 30  2  0  0  0  0
 25 31  1  0  0  0  0
 26 55  1  0  0  0  0
 26 56  1  0  0  0  0
 27 29  1  0  0  0  0
 27 32  1  0  0  0  0
 29 57  1  0  0  0  0
 30 33  1  0  0  0  0
 30 59  1  0  0  0  0
 31 34  2  0  0  0  0
 31 60  1  0  0  0  0
 33 35  2  0  0  0  0
 33 61  1  0  0  0  0
 34 35  1  0  0  0  0
 34 62  1  0  0  0  0
 36 63  1  0  0  0  0
 36 64  1  0  0  0  0
 36 65  1  0  0  0  0
M  END
> <PUBCHEM_COMPOUND_CID>
9826801

> <PUBCHEM_COMPOUND_CANONICALIZED>
1

> <PUBCHEM_CACTVS_COMPLEXITY>
758

> <PUBCHEM_CACTVS_HBOND_ACCEPTOR>
6

> <PUBCHEM_CACTVS_HBOND_DONOR>
1

> <PUBCHEM_CACTVS_ROTATABLE_BOND>
6

> <PUBCHEM_CACTVS_SUBSKEYS>
AAADceB74QAAAAAAAAAAAAAAAAAAAWLFgAA8YIAAAAAAAFgB/AAAHwAYAAAADQjBHww/0PfMEACqAzZndACSgCIxgiAc2KA4ZJiIYOLAkZGUIAhongLIyAcQgMAOiAACAAACAAAQAAQAAAQAAAAAAAAAAA==

> <PUBCHEM_IUPAC_OPENEYE_NAME>
1-[2-[4-[1-(4-fluorophenyl)-5-(2-methyltetrazol-5-yl)indol-3-yl]-1-piperidyl]ethyl]imidazolidin-2-one

> <PUBCHEM_IUPAC_CAS_NAME>
1-[2-[4-[1-(4-fluorophenyl)-5-(2-methyl-5-tetrazolyl)-3-indolyl]-1-piperidinyl]ethyl]-2-imidazolidinone

> <PUBCHEM_IUPAC_NAME_MARKUP>
1-[2-[4-[1-(4-fluorophenyl)-5-(2-methyltetrazol-5-yl)indol-3-yl]piperidin-1-yl]ethyl]imidazolidin-2-one

> <PUBCHEM_IUPAC_NAME>
1-[2-[4-[1-(4-fluorophenyl)-5-(2-methyltetrazol-5-yl)indol-3-yl]piperidin-1-yl]ethyl]imidazolidin-2-one

> <PUBCHEM_IUPAC_SYSTEMATIC_NAME>
1-[2-[4-[1-(4-fluorophenyl)-5-(2-methyl-1,2,3,4-tetrazol-5-yl)indol-3-yl]piperidin-1-yl]ethyl]imidazolidin-2-one

> <PUBCHEM_IUPAC_TRADITIONAL_NAME>
1-[2-[4-[1-(4-fluorophenyl)-5-(2-methyltetrazol-5-yl)indol-3-yl]piperidino]ethyl]-2-imidazolidinone

> <PUBCHEM_IUPAC_INCHI>
InChI=1S/C26H29FN8O/c1-32-30-25(29-31-32)19-2-7-24-22(16-19)23(17-35(24)21-5-3-20(27)4-6-21)18-8-11-33(12-9-18)14-15-34-13-10-28-26(34)36/h2-7,16-18H,8-15H2,1H3,(H,28,36)

> <PUBCHEM_IUPAC_INCHIKEY>
USCDVFNXTCISHV-UHFFFAOYSA-N

> <PUBCHEM_XLOGP3_AA>
3.3

> <PUBCHEM_EXACT_MASS>
488.24483574

> <PUBCHEM_MOLECULAR_FORMULA>
C26H29FN8O

> <PUBCHEM_MOLECULAR_WEIGHT>
488.6

> <PUBCHEM_OPENEYE_CAN_SMILES>
CN1N=C(N=N1)C2=CC3=C(C=C2)N(C=C3C4CCN(CC4)CCN5CCNC5=O)C6=CC=C(C=C6)F

> <PUBCHEM_OPENEYE_ISO_SMILES>
CN1N=C(N=N1)C2=CC3=C(C=C2)N(C=C3C4CCN(CC4)CCN5CCNC5=O)C6=CC=C(C=C6)F

> <PUBCHEM_CACTVS_TPSA>
84.1

> <PUBCHEM_MONOISOTOPIC_WEIGHT>
488.24483574

> <PUBCHEM_TOTAL_CHARGE>
0

> <PUBCHEM_HEAVY_ATOM_COUNT>
36

> <PUBCHEM_ATOM_DEF_STEREO_COUNT>
0

> <PUBCHEM_ATOM_UDEF_STEREO_COUNT>
0

> <PUBCHEM_BOND_DEF_STEREO_COUNT>
0

> <PUBCHEM_BOND_UDEF_STEREO_COUNT>
0

> <PUBCHEM_ISOTOPIC_ATOM_COUNT>
0

> <PUBCHEM_COMPONENT_COUNT>
1

> <PUBCHEM_CACTVS_TAUTO_COUNT>
-1

> <PUBCHEM_COORDINATE_TYPE>
1
5
255

> <PUBCHEM_BONDANNOTATIONS>
16  18  8
16  20  8
18  21  8
18  22  8
21  24  8
22  27  8
24  29  8
25  30  8
25  31  8
27  29  8
30  33  8
31  34  8
33  35  8
34  35  8
4  20  8
4  21  8
7  32  8
7  9  8
8  10  8
8  32  8
9  10  8

$$$$
