11849823
  -OEChem-09292322022D

 49 51  0     1  0  0  0  0  0999 V2000
    4.5981    1.2500    0.0000 O   0  0  0  0  0  0  0  0  0  0  0  0
    2.8660    4.2500    0.0000 O   0  0  0  0  0  0  0  0  0  0  0  0
    2.8660    0.2500    0.0000 N   0  0  0  0  0  0  0  0  0  0  0  0
    2.8660   -1.7500    0.0000 N   0  0  0  0  0  0  0  0  0  0  0  0
    2.0000   -3.2500    0.0000 N   0  0  0  0  0  0  0  0  0  0  0  0
    2.8660    3.2500    0.0000 N   0  0  0  0  0  0  0  0  0  0  0  0
    3.7320   -0.2500    0.0000 C   0  0  0  0  0  0  0  0  0  0  0  0
    2.0000   -0.2500    0.0000 C   0  0  0  0  0  0  0  0  0  0  0  0
    3.7320   -1.2500    0.0000 C   0  0  0  0  0  0  0  0  0  0  0  0
    2.0000   -1.2500    0.0000 C   0  0  0  0  0  0  0  0  0  0  0  0
    2.8660    1.2500    0.0000 C   0  0  0  0  0  0  0  0  0  0  0  0
    3.7320    1.7500    0.0000 C   0  0  3  0  0  0  0  0  0  0  0  0
    2.8660   -2.7500    0.0000 C   0  0  0  0  0  0  0  0  0  0  0  0
    3.7320    2.7500    0.0000 C   0  0  0  0  0  0  0  0  0  0  0  0
    3.7320   -3.2500    0.0000 C   0  0  0  0  0  0  0  0  0  0  0  0
    4.5981    3.2500    0.0000 C   0  0  0  0  0  0  0  0  0  0  0  0
    3.7320   -4.2500    0.0000 C   0  0  0  0  0  0  0  0  0  0  0  0
    5.4641    2.7500    0.0000 C   0  0  0  0  0  0  0  0  0  0  0  0
    4.5981    4.2500    0.0000 C   0  0  0  0  0  0  0  0  0  0  0  0
    2.0000   -4.2500    0.0000 C   0  0  0  0  0  0  0  0  0  0  0  0
    6.3301    3.2500    0.0000 C   0  0  0  0  0  0  0  0  0  0  0  0
    2.8660   -4.7500    0.0000 C   0  0  0  0  0  0  0  0  0  0  0  0
    5.4641    4.7500    0.0000 C   0  0  0  0  0  0  0  0  0  0  0  0
    6.3301    4.2500    0.0000 C   0  0  0  0  0  0  0  0  0  0  0  0
    7.1962    2.7500    0.0000 C   0  0  0  0  0  0  0  0  0  0  0  0
    4.3426   -0.3577    0.0000 H   0  0  0  0  0  0  0  0  0  0  0  0
    3.9441    0.3326    0.0000 H   0  0  0  0  0  0  0  0  0  0  0  0
    1.7880    0.3326    0.0000 H   0  0  0  0  0  0  0  0  0  0  0  0
    1.3894   -0.3577    0.0000 H   0  0  0  0  0  0  0  0  0  0  0  0
    3.9441   -1.8326    0.0000 H   0  0  0  0  0  0  0  0  0  0  0  0
    4.3426   -1.1423    0.0000 H   0  0  0  0  0  0  0  0  0  0  0  0
    1.3894   -1.1423    0.0000 H   0  0  0  0  0  0  0  0  0  0  0  0
    1.7880   -1.8326    0.0000 H   0  0  0  0  0  0  0  0  0  0  0  0
    2.6540    1.8326    0.0000 H   0  0  0  0  0  0  0  0  0  0  0  0
    2.2554    1.1423    0.0000 H   0  0  0  0  0  0  0  0  0  0  0  0
    3.7320    1.1300    0.0000 H   0  0  0  0  0  0  0  0  0  0  0  0
    4.2690   -2.9400    0.0000 H   0  0  0  0  0  0  0  0  0  0  0  0
    4.5981    0.6300    0.0000 H   0  0  0  0  0  0  0  0  0  0  0  0
    5.4641    2.1300    0.0000 H   0  0  0  0  0  0  0  0  0  0  0  0
    4.2690   -4.5600    0.0000 H   0  0  0  0  0  0  0  0  0  0  0  0
    4.0611    4.5600    0.0000 H   0  0  0  0  0  0  0  0  0  0  0  0
    1.4631   -4.5600    0.0000 H   0  0  0  0  0  0  0  0  0  0  0  0
    2.8660   -5.3700    0.0000 H   0  0  0  0  0  0  0  0  0  0  0  0
    5.4641    5.3700    0.0000 H   0  0  0  0  0  0  0  0  0  0  0  0
    6.8671    4.5600    0.0000 H   0  0  0  0  0  0  0  0  0  0  0  0
    6.8862    2.2131    0.0000 H   0  0  0  0  0  0  0  0  0  0  0  0
    7.7331    2.4400    0.0000 H   0  0  0  0  0  0  0  0  0  0  0  0
    7.5062    3.2869    0.0000 H   0  0  0  0  0  0  0  0  0  0  0  0
    2.3291    4.5600    0.0000 H   0  0  0  0  0  0  0  0  0  0  0  0
  1 12  1  0  0  0  0
  1 38  1  0  0  0  0
  2  6  1  0  0  0  0
  2 49  1  0  0  0  0
  3  7  1  0  0  0  0
  3  8  1  0  0  0  0
  3 11  1  0  0  0  0
  4  9  1  0  0  0  0
  4 10  1  0  0  0  0
  4 13  1  0  0  0  0
  5 13  1  0  0  0  0
  5 20  2  0  0  0  0
  6 14  2  0  0  0  0
  7  9  1  0  0  0  0
  7 26  1  0  0  0  0
  7 27  1  0  0  0  0
  8 10  1  0  0  0  0
  8 28  1  0  0  0  0
  8 29  1  0  0  0  0
  9 30  1  0  0  0  0
  9 31  1  0  0  0  0
 10 32  1  0  0  0  0
 10 33  1  0  0  0  0
 11 12  1  0  0  0  0
 11 34  1  0  0  0  0
 11 35  1  0  0  0  0
 12 14  1  0  0  0  0
 12 36  1  0  0  0  0
 13 15  2  0  0  0  0
 14 16  1  0  0  0  0
 15 17  1  0  0  0  0
 15 37  1  0  0  0  0
 16 18  1  0  0  0  0
 16 19  2  0  0  0  0
 17 22  2  0  0  0  0
 17 40  1  0  0  0  0
 18 21  2  0  0  0  0
 18 39  1  0  0  0  0
 19 23  1  0  0  0  0
 19 41  1  0  0  0  0
 20 22  1  0  0  0  0
 20 42  1  0  0  0  0
 21 24  1  0  0  0  0
 21 25  1  0  0  0  0
 22 43  1  0  0  0  0
 23 24  2  0  0  0  0
 23 44  1  0  0  0  0
 24 45  1  0  0  0  0
 25 46  1  0  0  0  0
 25 47  1  0  0  0  0
 25 48  1  0  0  0  0
M  END
> <PUBCHEM_COMPOUND_CID>
11849823

> <PUBCHEM_COMPOUND_CANONICALIZED>
1

> <PUBCHEM_CACTVS_COMPLEXITY>
437

> <PUBCHEM_CACTVS_HBOND_ACCEPTOR>
6

> <PUBCHEM_CACTVS_HBOND_DONOR>
2

> <PUBCHEM_CACTVS_ROTATABLE_BOND>
5

> <PUBCHEM_CACTVS_SUBSKEYS>
AAADceB7sAAAAAAAAAAAAAAAAAAAAAAAAAA8WIAAAAAAAAABwAAAHgAECAAADBzhmgY/sJMYEgCgAzJnZASCgCkxAiAJ2CA4ZJiKcOLAmZGUYAhswAPYyCeQwPAOAAACAAAAAAAAAAQAAAAAAAAAAAAAAA==

> <PUBCHEM_IUPAC_OPENEYE_NAME>
2-hydroxy-1-(m-tolyl)-3-[4-(2-pyridyl)piperazin-1-yl]propan-1-one oxime

> <PUBCHEM_IUPAC_CAS_NAME>
2-hydroxy-1-(3-methylphenyl)-3-[4-(2-pyridinyl)-1-piperazinyl]-1-propanone oxime

> <PUBCHEM_IUPAC_NAME_MARKUP>
(1<I>E</I>)-1-hydroxyimino-1-(3-methylphenyl)-3-(4-pyridin-2-ylpiperazin-1-yl)propan-2-ol

> <PUBCHEM_IUPAC_NAME>
(1E)-1-hydroxyimino-1-(3-methylphenyl)-3-(4-pyridin-2-ylpiperazin-1-yl)propan-2-ol

> <PUBCHEM_IUPAC_SYSTEMATIC_NAME>
(1E)-1-hydroxyimino-1-(3-methylphenyl)-3-(4-pyridin-2-ylpiperazin-1-yl)propan-2-ol

> <PUBCHEM_IUPAC_TRADITIONAL_NAME>
2-hydroxy-1-(m-tolyl)-3-[4-(2-pyridyl)piperazino]propan-1-one oxime

> <PUBCHEM_IUPAC_INCHI>
InChI=1S/C19H24N4O2/c1-15-5-4-6-16(13-15)19(21-25)17(24)14-22-9-11-23(12-10-22)18-7-2-3-8-20-18/h2-8,13,17,24-25H,9-12,14H2,1H3/b21-19+

> <PUBCHEM_IUPAC_INCHIKEY>
ICPYNMWGXFFVKR-XUTLUUPISA-N

> <PUBCHEM_XLOGP3_AA>
2.5

> <PUBCHEM_EXACT_MASS>
340.18992602

> <PUBCHEM_MOLECULAR_FORMULA>
C19H24N4O2

> <PUBCHEM_MOLECULAR_WEIGHT>
340.4

> <PUBCHEM_OPENEYE_CAN_SMILES>
CC1=CC(=CC=C1)C(=NO)C(CN2CCN(CC2)C3=CC=CC=N3)O

> <PUBCHEM_OPENEYE_ISO_SMILES>
CC1=CC(=CC=C1)/C(=N\O)/C(CN2CCN(CC2)C3=CC=CC=N3)O

> <PUBCHEM_CACTVS_TPSA>
72.2

> <PUBCHEM_MONOISOTOPIC_WEIGHT>
340.18992602

> <PUBCHEM_TOTAL_CHARGE>
0

> <PUBCHEM_HEAVY_ATOM_COUNT>
25

> <PUBCHEM_ATOM_DEF_STEREO_COUNT>
0

> <PUBCHEM_ATOM_UDEF_STEREO_COUNT>
1

> <PUBCHEM_BOND_DEF_STEREO_COUNT>
1

> <PUBCHEM_BOND_UDEF_STEREO_COUNT>
0

> <PUBCHEM_ISOTOPIC_ATOM_COUNT>
0

> <PUBCHEM_COMPONENT_COUNT>
1

> <PUBCHEM_CACTVS_TAUTO_COUNT>
-1

> <PUBCHEM_COORDINATE_TYPE>
1
5
255

> <PUBCHEM_BONDANNOTATIONS>
12  1  3
13  15  8
15  17  8
16  18  8
16  19  8
17  22  8
18  21  8
19  23  8
20  22  8
21  24  8
23  24  8
5  13  8
5  20  8

$$$$
