122180620
  -OEChem-09292322362D

 59 62  0     1  0  0  0  0  0999 V2000
    6.3301   -0.5352    0.0000 O   0  0  0  0  0  0  0  0  0  0  0  0
    2.8660   -4.5352    0.0000 O   0  0  0  0  0  0  0  0  0  0  0  0
    4.5981   -1.5352    0.0000 N   0  0  0  0  0  0  0  0  0  0  0  0
    4.5981   -3.5352    0.0000 N   0  0  0  0  0  0  0  0  0  0  0  0
    6.3301    2.4648    0.0000 N   0  0  0  0  0  0  0  0  0  0  0  0
    5.5211    3.0526    0.0000 N   0  0  0  0  0  0  0  0  0  0  0  0
    5.8301    4.0036    0.0000 N   0  0  0  0  0  0  0  0  0  0  0  0
    5.4641   -2.0352    0.0000 C   0  0  0  0  0  0  0  0  0  0  0  0
    3.7320   -2.0352    0.0000 C   0  0  0  0  0  0  0  0  0  0  0  0
    5.4641   -3.0352    0.0000 C   0  0  0  0  0  0  0  0  0  0  0  0
    3.7320   -3.0352    0.0000 C   0  0  0  0  0  0  0  0  0  0  0  0
    4.5981   -0.5352    0.0000 C   0  0  0  0  0  0  0  0  0  0  0  0
    5.4641   -0.0352    0.0000 C   0  0  3  0  0  0  0  0  0  0  0  0
    5.4641    0.9648    0.0000 C   0  0  0  0  0  0  0  0  0  0  0  0
    4.5981   -4.5352    0.0000 C   0  0  0  0  0  0  0  0  0  0  0  0
    6.3301    1.4648    0.0000 C   0  0  0  0  0  0  0  0  0  0  0  0
    3.7320   -5.0352    0.0000 C   0  0  0  0  0  0  0  0  0  0  0  0
    5.4641   -5.0352    0.0000 C   0  0  0  0  0  0  0  0  0  0  0  0
    3.7320   -6.0352    0.0000 C   0  0  0  0  0  0  0  0  0  0  0  0
    5.4641   -6.0352    0.0000 C   0  0  0  0  0  0  0  0  0  0  0  0
    4.5981   -6.5352    0.0000 C   0  0  0  0  0  0  0  0  0  0  0  0
    7.1391    3.0526    0.0000 C   0  0  0  0  0  0  0  0  0  0  0  0
    6.8301    4.0036    0.0000 C   0  0  0  0  0  0  0  0  0  0  0  0
    2.0000   -5.0352    0.0000 C   0  0  0  0  0  0  0  0  0  0  0  0
    7.4179    4.8126    0.0000 C   0  0  0  0  0  0  0  0  0  0  0  0
    7.0112    5.7262    0.0000 C   0  0  0  0  0  0  0  0  0  0  0  0
    8.4124    4.7081    0.0000 C   0  0  0  0  0  0  0  0  0  0  0  0
    7.5990    6.5352    0.0000 C   0  0  0  0  0  0  0  0  0  0  0  0
    9.0002    5.5171    0.0000 C   0  0  0  0  0  0  0  0  0  0  0  0
    8.5935    6.4307    0.0000 C   0  0  0  0  0  0  0  0  0  0  0  0
    6.0747   -2.1429    0.0000 H   0  0  0  0  0  0  0  0  0  0  0  0
    5.6762   -1.4526    0.0000 H   0  0  0  0  0  0  0  0  0  0  0  0
    3.5200   -1.4526    0.0000 H   0  0  0  0  0  0  0  0  0  0  0  0
    3.1215   -2.1429    0.0000 H   0  0  0  0  0  0  0  0  0  0  0  0
    5.6762   -3.6178    0.0000 H   0  0  0  0  0  0  0  0  0  0  0  0
    6.0747   -2.9276    0.0000 H   0  0  0  0  0  0  0  0  0  0  0  0
    3.1215   -2.9276    0.0000 H   0  0  0  0  0  0  0  0  0  0  0  0
    3.5200   -3.6178    0.0000 H   0  0  0  0  0  0  0  0  0  0  0  0
    4.3860    0.0474    0.0000 H   0  0  0  0  0  0  0  0  0  0  0  0
    3.9875   -0.6429    0.0000 H   0  0  0  0  0  0  0  0  0  0  0  0
    5.4641   -0.6552    0.0000 H   0  0  0  0  0  0  0  0  0  0  0  0
    5.2520    1.5474    0.0000 H   0  0  0  0  0  0  0  0  0  0  0  0
    4.8535    0.8571    0.0000 H   0  0  0  0  0  0  0  0  0  0  0  0
    6.5422    0.8822    0.0000 H   0  0  0  0  0  0  0  0  0  0  0  0
    6.9407    1.5724    0.0000 H   0  0  0  0  0  0  0  0  0  0  0  0
    6.8671   -0.2252    0.0000 H   0  0  0  0  0  0  0  0  0  0  0  0
    6.0010   -4.7252    0.0000 H   0  0  0  0  0  0  0  0  0  0  0  0
    3.1951   -6.3452    0.0000 H   0  0  0  0  0  0  0  0  0  0  0  0
    6.0010   -6.3452    0.0000 H   0  0  0  0  0  0  0  0  0  0  0  0
    4.5981   -7.1552    0.0000 H   0  0  0  0  0  0  0  0  0  0  0  0
    7.7288    2.8610    0.0000 H   0  0  0  0  0  0  0  0  0  0  0  0
    1.6900   -4.4983    0.0000 H   0  0  0  0  0  0  0  0  0  0  0  0
    1.4631   -5.3452    0.0000 H   0  0  0  0  0  0  0  0  0  0  0  0
    2.3100   -5.5722    0.0000 H   0  0  0  0  0  0  0  0  0  0  0  0
    6.3946    5.7910    0.0000 H   0  0  0  0  0  0  0  0  0  0  0  0
    8.6646    4.1417    0.0000 H   0  0  0  0  0  0  0  0  0  0  0  0
    7.3468    7.1016    0.0000 H   0  0  0  0  0  0  0  0  0  0  0  0
    9.6168    5.4523    0.0000 H   0  0  0  0  0  0  0  0  0  0  0  0
    8.9579    6.9323    0.0000 H   0  0  0  0  0  0  0  0  0  0  0  0
  1 13  1  0  0  0  0
  1 46  1  0  0  0  0
  2 17  1  0  0  0  0
  2 24  1  0  0  0  0
  3  8  1  0  0  0  0
  3  9  1  0  0  0  0
  3 12  1  0  0  0  0
  4 10  1  0  0  0  0
  4 11  1  0  0  0  0
  4 15  1  0  0  0  0
  5  6  1  0  0  0  0
  5 16  1  0  0  0  0
  5 22  1  0  0  0  0
  6  7  2  0  0  0  0
  7 23  1  0  0  0  0
  8 10  1  0  0  0  0
  8 31  1  0  0  0  0
  8 32  1  0  0  0  0
  9 11  1  0  0  0  0
  9 33  1  0  0  0  0
  9 34  1  0  0  0  0
 10 35  1  0  0  0  0
 10 36  1  0  0  0  0
 11 37  1  0  0  0  0
 11 38  1  0  0  0  0
 12 13  1  0  0  0  0
 12 39  1  0  0  0  0
 12 40  1  0  0  0  0
 13 14  1  0  0  0  0
 13 41  1  0  0  0  0
 14 16  1  0  0  0  0
 14 42  1  0  0  0  0
 14 43  1  0  0  0  0
 15 17  1  0  0  0  0
 15 18  2  0  0  0  0
 16 44  1  0  0  0  0
 16 45  1  0  0  0  0
 17 19  2  0  0  0  0
 18 20  1  0  0  0  0
 18 47  1  0  0  0  0
 19 21  1  0  0  0  0
 19 48  1  0  0  0  0
 20 21  2  0  0  0  0
 20 49  1  0  0  0  0
 21 50  1  0  0  0  0
 22 23  2  0  0  0  0
 22 51  1  0  0  0  0
 23 25  1  0  0  0  0
 24 52  1  0  0  0  0
 24 53  1  0  0  0  0
 24 54  1  0  0  0  0
 25 26  2  0  0  0  0
 25 27  1  0  0  0  0
 26 28  1  0  0  0  0
 26 55  1  0  0  0  0
 27 29  2  0  0  0  0
 27 56  1  0  0  0  0
 28 30  2  0  0  0  0
 28 57  1  0  0  0  0
 29 30  1  0  0  0  0
 29 58  1  0  0  0  0
 30 59  1  0  0  0  0
M  END
> <PUBCHEM_COMPOUND_CID>
122180620

> <PUBCHEM_COMPOUND_CANONICALIZED>
1

> <PUBCHEM_CACTVS_COMPLEXITY>
496

> <PUBCHEM_CACTVS_HBOND_ACCEPTOR>
6

> <PUBCHEM_CACTVS_HBOND_DONOR>
1

> <PUBCHEM_CACTVS_ROTATABLE_BOND>
8

> <PUBCHEM_CACTVS_SUBSKEYS>
AAADceB7sAAAAAAAAAAAAAAAAAAAAWAAAAA8YIAAAAAAAAAB0AAAHgAICAAADBzhngY+xpMIBgCiAzRnRACCDAQxsgAY2CA/fJgOdqLEsZuVcChmwBHY6AeQwIAOAAAAAAAAEAAAAAAAAAAgAAAAAAAAAA==

> <PUBCHEM_IUPAC_OPENEYE_NAME>
1-[4-(2-methoxyphenyl)piperazin-1-yl]-4-(4-phenyltriazol-1-yl)butan-2-ol

> <PUBCHEM_IUPAC_CAS_NAME>
1-[4-(2-methoxyphenyl)-1-piperazinyl]-4-(4-phenyl-1-triazolyl)-2-butanol

> <PUBCHEM_IUPAC_NAME_MARKUP>
1-[4-(2-methoxyphenyl)piperazin-1-yl]-4-(4-phenyltriazol-1-yl)butan-2-ol

> <PUBCHEM_IUPAC_NAME>
1-[4-(2-methoxyphenyl)piperazin-1-yl]-4-(4-phenyltriazol-1-yl)butan-2-ol

> <PUBCHEM_IUPAC_SYSTEMATIC_NAME>
1-[4-(2-methoxyphenyl)piperazin-1-yl]-4-(4-phenyl-1,2,3-triazol-1-yl)butan-2-ol

> <PUBCHEM_IUPAC_TRADITIONAL_NAME>
1-[4-(2-methoxyphenyl)piperazino]-4-(4-phenyltriazol-1-yl)butan-2-ol

> <PUBCHEM_IUPAC_INCHI>
InChI=1S/C23H29N5O2/c1-30-23-10-6-5-9-22(23)27-15-13-26(14-16-27)17-20(29)11-12-28-18-21(24-25-28)19-7-3-2-4-8-19/h2-10,18,20,29H,11-17H2,1H3

> <PUBCHEM_IUPAC_INCHIKEY>
KOKVPXWLCVIJPN-UHFFFAOYSA-N

> <PUBCHEM_XLOGP3_AA>
2.6

> <PUBCHEM_EXACT_MASS>
407.23212518

> <PUBCHEM_MOLECULAR_FORMULA>
C23H29N5O2

> <PUBCHEM_MOLECULAR_WEIGHT>
407.5

> <PUBCHEM_OPENEYE_CAN_SMILES>
COC1=CC=CC=C1N2CCN(CC2)CC(CCN3C=C(N=N3)C4=CC=CC=C4)O

> <PUBCHEM_OPENEYE_ISO_SMILES>
COC1=CC=CC=C1N2CCN(CC2)CC(CCN3C=C(N=N3)C4=CC=CC=C4)O

> <PUBCHEM_CACTVS_TPSA>
66.6

> <PUBCHEM_MONOISOTOPIC_WEIGHT>
407.23212518

> <PUBCHEM_TOTAL_CHARGE>
0

> <PUBCHEM_HEAVY_ATOM_COUNT>
30

> <PUBCHEM_ATOM_DEF_STEREO_COUNT>
0

> <PUBCHEM_ATOM_UDEF_STEREO_COUNT>
1

> <PUBCHEM_BOND_DEF_STEREO_COUNT>
0

> <PUBCHEM_BOND_UDEF_STEREO_COUNT>
0

> <PUBCHEM_ISOTOPIC_ATOM_COUNT>
0

> <PUBCHEM_COMPONENT_COUNT>
1

> <PUBCHEM_CACTVS_TAUTO_COUNT>
-1

> <PUBCHEM_COORDINATE_TYPE>
1
5
255

> <PUBCHEM_BONDANNOTATIONS>
13  1  3
15  17  8
15  18  8
17  19  8
18  20  8
19  21  8
20  21  8
22  23  8
25  26  8
25  27  8
26  28  8
27  29  8
28  30  8
29  30  8
5  22  8
5  6  8
6  7  8
7  23  8

$$$$
