142573385
  -OEChem-09292322412D

 69 73  0     0  0  0  0  0  0999 V2000
    2.8644   -2.4648    0.0000 S   0  0  0  0  0  0  0  0  0  0  0  0
    6.3285    5.5352    0.0000 O   0  0  0  0  0  0  0  0  0  0  0  0
    4.5965    0.5352    0.0000 N   0  0  0  0  0  0  0  0  0  0  0  0
    4.5965    4.5352    0.0000 N   0  0  0  0  0  0  0  0  0  0  0  0
    3.6734   -4.0526    0.0000 N   0  0  0  0  0  0  0  0  0  0  0  0
    2.0554   -4.0526    0.0000 N   0  0  0  0  0  0  0  0  0  0  0  0
    2.3644   -5.0036    0.0000 N   0  0  0  0  0  0  0  0  0  0  0  0
    4.5965    2.5352    0.0000 C   0  0  0  0  0  0  0  0  0  0  0  0
    3.7304    2.0352    0.0000 C   0  0  0  0  0  0  0  0  0  0  0  0
    5.4625    2.0352    0.0000 C   0  0  0  0  0  0  0  0  0  0  0  0
    5.4625    3.0352    0.0000 C   0  0  0  0  0  0  0  0  0  0  0  0
    3.7304    3.0352    0.0000 C   0  0  0  0  0  0  0  0  0  0  0  0
    3.7304    1.0352    0.0000 C   0  0  0  0  0  0  0  0  0  0  0  0
    5.4625    1.0352    0.0000 C   0  0  0  0  0  0  0  0  0  0  0  0
    5.4625    4.0352    0.0000 C   0  0  0  0  0  0  0  0  0  0  0  0
    3.7304    4.0352    0.0000 C   0  0  0  0  0  0  0  0  0  0  0  0
    4.5965   -0.4648    0.0000 C   0  0  0  0  0  0  0  0  0  0  0  0
    4.5965    5.5352    0.0000 C   0  0  0  0  0  0  0  0  0  0  0  0
    3.7304   -0.9648    0.0000 C   0  0  0  0  0  0  0  0  0  0  0  0
    5.4625    6.0352    0.0000 C   0  0  0  0  0  0  0  0  0  0  0  0
    3.7304    6.0352    0.0000 C   0  0  0  0  0  0  0  0  0  0  0  0
    3.7304   -1.9648    0.0000 C   0  0  0  0  0  0  0  0  0  0  0  0
    5.4625    7.0352    0.0000 C   0  0  0  0  0  0  0  0  0  0  0  0
    3.7304    7.0352    0.0000 C   0  0  0  0  0  0  0  0  0  0  0  0
    4.5965    7.5352    0.0000 C   0  0  0  0  0  0  0  0  0  0  0  0
    7.1946    6.0352    0.0000 C   0  0  0  0  0  0  0  0  0  0  0  0
    2.8644   -3.4648    0.0000 C   0  0  0  0  0  0  0  0  0  0  0  0
    3.3644   -5.0036    0.0000 C   0  0  0  0  0  0  0  0  0  0  0  0
    3.9522   -5.8126    0.0000 C   0  0  0  0  0  0  0  0  0  0  0  0
    3.5455   -6.7262    0.0000 C   0  0  0  0  0  0  0  0  0  0  0  0
    4.9467   -5.7081    0.0000 C   0  0  0  0  0  0  0  0  0  0  0  0
    4.1333   -7.5352    0.0000 C   0  0  0  0  0  0  0  0  0  0  0  0
    5.5345   -6.5171    0.0000 C   0  0  0  0  0  0  0  0  0  0  0  0
    5.1278   -7.4307    0.0000 C   0  0  0  0  0  0  0  0  0  0  0  0
    3.5184    2.6178    0.0000 H   0  0  0  0  0  0  0  0  0  0  0  0
    3.1199    1.9276    0.0000 H   0  0  0  0  0  0  0  0  0  0  0  0
    6.0731    1.9276    0.0000 H   0  0  0  0  0  0  0  0  0  0  0  0
    5.6746    2.6178    0.0000 H   0  0  0  0  0  0  0  0  0  0  0  0
    5.6746    2.4526    0.0000 H   0  0  0  0  0  0  0  0  0  0  0  0
    6.0731    3.1429    0.0000 H   0  0  0  0  0  0  0  0  0  0  0  0
    3.1199    3.1429    0.0000 H   0  0  0  0  0  0  0  0  0  0  0  0
    3.5184    2.4526    0.0000 H   0  0  0  0  0  0  0  0  0  0  0  0
    3.1199    1.1429    0.0000 H   0  0  0  0  0  0  0  0  0  0  0  0
    3.5184    0.4526    0.0000 H   0  0  0  0  0  0  0  0  0  0  0  0
    5.6746    0.4526    0.0000 H   0  0  0  0  0  0  0  0  0  0  0  0
    6.0731    1.1429    0.0000 H   0  0  0  0  0  0  0  0  0  0  0  0
    6.0731    3.9276    0.0000 H   0  0  0  0  0  0  0  0  0  0  0  0
    5.6746    4.6178    0.0000 H   0  0  0  0  0  0  0  0  0  0  0  0
    3.5184    4.6178    0.0000 H   0  0  0  0  0  0  0  0  0  0  0  0
    3.1199    3.9276    0.0000 H   0  0  0  0  0  0  0  0  0  0  0  0
    4.8085   -1.0474    0.0000 H   0  0  0  0  0  0  0  0  0  0  0  0
    5.2071   -0.3571    0.0000 H   0  0  0  0  0  0  0  0  0  0  0  0
    3.5184   -0.3822    0.0000 H   0  0  0  0  0  0  0  0  0  0  0  0
    3.1199   -1.0724    0.0000 H   0  0  0  0  0  0  0  0  0  0  0  0
    3.1935    5.7252    0.0000 H   0  0  0  0  0  0  0  0  0  0  0  0
    3.9425   -2.5474    0.0000 H   0  0  0  0  0  0  0  0  0  0  0  0
    4.3410   -1.8571    0.0000 H   0  0  0  0  0  0  0  0  0  0  0  0
    5.9994    7.3452    0.0000 H   0  0  0  0  0  0  0  0  0  0  0  0
    3.1935    7.3452    0.0000 H   0  0  0  0  0  0  0  0  0  0  0  0
    4.5965    8.1552    0.0000 H   0  0  0  0  0  0  0  0  0  0  0  0
    7.5046    5.4983    0.0000 H   0  0  0  0  0  0  0  0  0  0  0  0
    7.7315    6.3452    0.0000 H   0  0  0  0  0  0  0  0  0  0  0  0
    6.8846    6.5722    0.0000 H   0  0  0  0  0  0  0  0  0  0  0  0
    2.0000   -5.5052    0.0000 H   0  0  0  0  0  0  0  0  0  0  0  0
    2.9289   -6.7910    0.0000 H   0  0  0  0  0  0  0  0  0  0  0  0
    5.1989   -5.1417    0.0000 H   0  0  0  0  0  0  0  0  0  0  0  0
    3.8811   -8.1016    0.0000 H   0  0  0  0  0  0  0  0  0  0  0  0
    6.1511   -6.4523    0.0000 H   0  0  0  0  0  0  0  0  0  0  0  0
    5.4922   -7.9323    0.0000 H   0  0  0  0  0  0  0  0  0  0  0  0
  1 22  1  0  0  0  0
  1 27  1  0  0  0  0
  2 20  1  0  0  0  0
  2 26  1  0  0  0  0
  3 13  1  0  0  0  0
  3 14  1  0  0  0  0
  3 17  1  0  0  0  0
  4 15  1  0  0  0  0
  4 16  1  0  0  0  0
  4 18  1  0  0  0  0
  5 27  1  0  0  0  0
  5 28  2  0  0  0  0
  6  7  1  0  0  0  0
  6 27  2  0  0  0  0
  7 28  1  0  0  0  0
  7 64  1  0  0  0  0
  8  9  1  0  0  0  0
  8 10  1  0  0  0  0
  8 11  1  0  0  0  0
  8 12  1  0  0  0  0
  9 13  1  0  0  0  0
  9 35  1  0  0  0  0
  9 36  1  0  0  0  0
 10 14  1  0  0  0  0
 10 37  1  0  0  0  0
 10 38  1  0  0  0  0
 11 15  1  0  0  0  0
 11 39  1  0  0  0  0
 11 40  1  0  0  0  0
 12 16  1  0  0  0  0
 12 41  1  0  0  0  0
 12 42  1  0  0  0  0
 13 43  1  0  0  0  0
 13 44  1  0  0  0  0
 14 45  1  0  0  0  0
 14 46  1  0  0  0  0
 15 47  1  0  0  0  0
 15 48  1  0  0  0  0
 16 49  1  0  0  0  0
 16 50  1  0  0  0  0
 17 19  1  0  0  0  0
 17 51  1  0  0  0  0
 17 52  1  0  0  0  0
 18 20  1  0  0  0  0
 18 21  2  0  0  0  0
 19 22  1  0  0  0  0
 19 53  1  0  0  0  0
 19 54  1  0  0  0  0
 20 23  2  0  0  0  0
 21 24  1  0  0  0  0
 21 55  1  0  0  0  0
 22 56  1  0  0  0  0
 22 57  1  0  0  0  0
 23 25  1  0  0  0  0
 23 58  1  0  0  0  0
 24 25  2  0  0  0  0
 24 59  1  0  0  0  0
 25 60  1  0  0  0  0
 26 61  1  0  0  0  0
 26 62  1  0  0  0  0
 26 63  1  0  0  0  0
 28 29  1  0  0  0  0
 29 30  2  0  0  0  0
 29 31  1  0  0  0  0
 30 32  1  0  0  0  0
 30 65  1  0  0  0  0
 31 33  2  0  0  0  0
 31 66  1  0  0  0  0
 32 34  2  0  0  0  0
 32 67  1  0  0  0  0
 33 34  1  0  0  0  0
 33 68  1  0  0  0  0
 34 69  1  0  0  0  0
M  END
> <PUBCHEM_COMPOUND_CID>
142573385

> <PUBCHEM_COMPOUND_CANONICALIZED>
1

> <PUBCHEM_CACTVS_COMPLEXITY>
600

> <PUBCHEM_CACTVS_HBOND_ACCEPTOR>
6

> <PUBCHEM_CACTVS_HBOND_DONOR>
1

> <PUBCHEM_CACTVS_ROTATABLE_BOND>
8

> <PUBCHEM_CACTVS_SUBSKEYS>
AAADcfB7oABAAAAAAAAAAAAAAAAAAWAAAAA8eIEAAAAAAAAB0AAAHgQYAAAADgzF2waz1odrFAiiAiZiZACS2AvhIrAdqCAvbJiOLqLkuZuFMChkyBPY6AeQwAAPAAAAAAAAEAAAAAAAAAAgAAAAAAAAAA==

> <PUBCHEM_IUPAC_OPENEYE_NAME>
3-(2-methoxyphenyl)-9-[3-[(5-phenyl-1H-1,2,4-triazol-3-yl)sulfanyl]propyl]-3,9-diazaspiro[5.5]undecane

> <PUBCHEM_IUPAC_CAS_NAME>
3-(2-methoxyphenyl)-9-[3-[(5-phenyl-1H-1,2,4-triazol-3-yl)thio]propyl]-3,9-diazaspiro[5.5]undecane

> <PUBCHEM_IUPAC_NAME_MARKUP>
3-(2-methoxyphenyl)-9-[3-[(5-phenyl-1<I>H</I>-1,2,4-triazol-3-yl)sulfanyl]propyl]-3,9-diazaspiro[5.5]undecane

> <PUBCHEM_IUPAC_NAME>
3-(2-methoxyphenyl)-9-[3-[(5-phenyl-1H-1,2,4-triazol-3-yl)sulfanyl]propyl]-3,9-diazaspiro[5.5]undecane

> <PUBCHEM_IUPAC_SYSTEMATIC_NAME>
3-(2-methoxyphenyl)-9-[3-[(5-phenyl-1H-1,2,4-triazol-3-yl)sulfanyl]propyl]-3,9-diazaspiro[5.5]undecane

> <PUBCHEM_IUPAC_TRADITIONAL_NAME>
3-(2-methoxyphenyl)-9-[3-[(5-phenyl-1H-1,2,4-triazol-3-yl)thio]propyl]-3,9-diazaspiro[5.5]undecane

> <PUBCHEM_IUPAC_INCHI>
InChI=1S/C27H35N5OS/c1-33-24-11-6-5-10-23(24)32-19-14-27(15-20-32)12-17-31(18-13-27)16-7-21-34-26-28-25(29-30-26)22-8-3-2-4-9-22/h2-6,8-11H,7,12-21H2,1H3,(H,28,29,30)

> <PUBCHEM_IUPAC_INCHIKEY>
UNDYONYPTZDMOJ-UHFFFAOYSA-N

> <PUBCHEM_XLOGP3_AA>
5.8

> <PUBCHEM_EXACT_MASS>
477.25623193

> <PUBCHEM_MOLECULAR_FORMULA>
C27H35N5OS

> <PUBCHEM_MOLECULAR_WEIGHT>
477.7

> <PUBCHEM_OPENEYE_CAN_SMILES>
COC1=CC=CC=C1N2CCC3(CCN(CC3)CCCSC4=NNC(=N4)C5=CC=CC=C5)CC2

> <PUBCHEM_OPENEYE_ISO_SMILES>
COC1=CC=CC=C1N2CCC3(CCN(CC3)CCCSC4=NNC(=N4)C5=CC=CC=C5)CC2

> <PUBCHEM_CACTVS_TPSA>
82.6

> <PUBCHEM_MONOISOTOPIC_WEIGHT>
477.25623193

> <PUBCHEM_TOTAL_CHARGE>
0

> <PUBCHEM_HEAVY_ATOM_COUNT>
34

> <PUBCHEM_ATOM_DEF_STEREO_COUNT>
0

> <PUBCHEM_ATOM_UDEF_STEREO_COUNT>
0

> <PUBCHEM_BOND_DEF_STEREO_COUNT>
0

> <PUBCHEM_BOND_UDEF_STEREO_COUNT>
0

> <PUBCHEM_ISOTOPIC_ATOM_COUNT>
0

> <PUBCHEM_COMPONENT_COUNT>
1

> <PUBCHEM_CACTVS_TAUTO_COUNT>
-1

> <PUBCHEM_COORDINATE_TYPE>
1
5
255

> <PUBCHEM_BONDANNOTATIONS>
18  20  8
18  21  8
20  23  8
21  24  8
23  25  8
24  25  8
29  30  8
29  31  8
30  32  8
31  33  8
32  34  8
33  34  8
5  27  8
5  28  8
6  27  8
6  7  8
7  28  8

$$$$
