44447028
  -OEChem-09292322262D

 71 76  0     1  0  0  0  0  0999 V2000
    3.7899    1.2130    0.0000 S   0  0  0  0  0  0  0  0  0  0  0  0
   14.6962   -1.2677    0.0000 O   0  0  0  0  0  0  0  0  0  0  0  0
    7.4629   -1.4849    0.0000 N   0  0  0  0  0  0  0  0  0  0  0  0
    5.7308   -0.4849    0.0000 N   0  0  0  0  0  0  0  0  0  0  0  0
   13.0499   -0.7296    0.0000 N   0  0  0  0  0  0  0  0  0  0  0  0
    4.7617    1.0038    0.0000 N   0  0  0  0  0  0  0  0  0  0  0  0
   12.7392   -1.6802    0.0000 C   0  0  3  0  0  0  0  0  0  0  0  0
   13.3228   -2.4849    0.0000 C   0  0  0  0  0  0  0  0  0  0  0  0
   11.7930   -1.9849    0.0000 C   0  0  0  0  0  0  0  0  0  0  0  0
   12.7392   -3.2896    0.0000 C   0  0  0  0  0  0  0  0  0  0  0  0
   11.7930   -2.9849    0.0000 C   0  0  0  0  0  0  0  0  0  0  0  0
    8.3289   -1.9849    0.0000 C   0  0  0  0  0  0  0  0  0  0  0  0
    6.5968   -1.9849    0.0000 C   0  0  0  0  0  0  0  0  0  0  0  0
    7.4629   -0.4849    0.0000 C   0  0  0  0  0  0  0  0  0  0  0  0
    9.1949   -1.4849    0.0000 C   0  0  0  0  0  0  0  0  0  0  0  0
    5.7308   -1.4849    0.0000 C   0  0  0  0  0  0  0  0  0  0  0  0
    6.5968    0.0151    0.0000 C   0  0  0  0  0  0  0  0  0  0  0  0
   10.0610   -1.9849    0.0000 C   0  0  0  0  0  0  0  0  0  0  0  0
   10.9270   -1.4849    0.0000 C   0  0  0  0  0  0  0  0  0  0  0  0
   10.9270   -3.4849    0.0000 C   0  0  0  0  0  0  0  0  0  0  0  0
   10.0610   -2.9849    0.0000 C   0  0  0  0  0  0  0  0  0  0  0  0
    4.8648    0.0151    0.0000 C   0  0  0  0  0  0  0  0  0  0  0  0
   14.0284   -0.5234    0.0000 C   0  0  0  0  0  0  0  0  0  0  0  0
    3.9570   -0.3900    0.0000 C   0  0  0  0  0  0  0  0  0  0  0  0
   14.3391    0.4271    0.0000 C   0  0  0  0  0  0  0  0  0  0  0  0
    3.2892    0.3543    0.0000 C   0  0  0  0  0  0  0  0  0  0  0  0
   15.3176    0.6333    0.0000 C   0  0  0  0  0  0  0  0  0  0  0  0
    3.6464   -1.3405    0.0000 C   0  0  0  0  0  0  0  0  0  0  0  0
    2.3107    0.1481    0.0000 C   0  0  0  0  0  0  0  0  0  0  0  0
   15.6282    1.5838    0.0000 C   0  0  0  0  0  0  0  0  0  0  0  0
    2.6678   -1.5467    0.0000 C   0  0  0  0  0  0  0  0  0  0  0  0
    2.0000   -0.8024    0.0000 C   0  0  0  0  0  0  0  0  0  0  0  0
   16.6067    1.7901    0.0000 C   0  0  0  0  0  0  0  0  0  0  0  0
   14.9604    2.3282    0.0000 C   0  0  0  0  0  0  0  0  0  0  0  0
   16.9174    2.7406    0.0000 C   0  0  0  0  0  0  0  0  0  0  0  0
   15.2710    3.2787    0.0000 C   0  0  0  0  0  0  0  0  0  0  0  0
   16.2495    3.4849    0.0000 C   0  0  0  0  0  0  0  0  0  0  0  0
   13.3517   -1.5840    0.0000 H   0  0  0  0  0  0  0  0  0  0  0  0
   13.7837   -2.8996    0.0000 H   0  0  0  0  0  0  0  0  0  0  0  0
   13.7837   -2.0702    0.0000 H   0  0  0  0  0  0  0  0  0  0  0  0
   12.4882   -3.8565    0.0000 H   0  0  0  0  0  0  0  0  0  0  0  0
   13.2766   -3.5988    0.0000 H   0  0  0  0  0  0  0  0  0  0  0  0
    7.9304   -2.4598    0.0000 H   0  0  0  0  0  0  0  0  0  0  0  0
    8.7274   -2.4598    0.0000 H   0  0  0  0  0  0  0  0  0  0  0  0
    6.1983   -2.4598    0.0000 H   0  0  0  0  0  0  0  0  0  0  0  0
    6.9954   -2.4598    0.0000 H   0  0  0  0  0  0  0  0  0  0  0  0
    8.0734   -0.5925    0.0000 H   0  0  0  0  0  0  0  0  0  0  0  0
    7.6749    0.0977    0.0000 H   0  0  0  0  0  0  0  0  0  0  0  0
    9.5934   -1.0099    0.0000 H   0  0  0  0  0  0  0  0  0  0  0  0
    8.7964   -1.0099    0.0000 H   0  0  0  0  0  0  0  0  0  0  0  0
    5.1202   -1.3772    0.0000 H   0  0  0  0  0  0  0  0  0  0  0  0
    5.5188   -2.0675    0.0000 H   0  0  0  0  0  0  0  0  0  0  0  0
    6.9954    0.4901    0.0000 H   0  0  0  0  0  0  0  0  0  0  0  0
    6.1983    0.4901    0.0000 H   0  0  0  0  0  0  0  0  0  0  0  0
   10.9270   -0.8649    0.0000 H   0  0  0  0  0  0  0  0  0  0  0  0
   10.9270   -4.1049    0.0000 H   0  0  0  0  0  0  0  0  0  0  0  0
   12.6358   -0.2682    0.0000 H   0  0  0  0  0  0  0  0  0  0  0  0
    9.5240   -3.2949    0.0000 H   0  0  0  0  0  0  0  0  0  0  0  0
   14.3185    1.0468    0.0000 H   0  0  0  0  0  0  0  0  0  0  0  0
   13.7252    0.5145    0.0000 H   0  0  0  0  0  0  0  0  0  0  0  0
   15.3381    0.0137    0.0000 H   0  0  0  0  0  0  0  0  0  0  0  0
   15.9314    0.5460    0.0000 H   0  0  0  0  0  0  0  0  0  0  0  0
    4.0604   -1.8020    0.0000 H   0  0  0  0  0  0  0  0  0  0  0  0
    1.8966    0.6096    0.0000 H   0  0  0  0  0  0  0  0  0  0  0  0
    2.4752   -2.1361    0.0000 H   0  0  0  0  0  0  0  0  0  0  0  0
    1.3933   -0.9303    0.0000 H   0  0  0  0  0  0  0  0  0  0  0  0
   17.0208    1.3286    0.0000 H   0  0  0  0  0  0  0  0  0  0  0  0
   14.3537    2.2003    0.0000 H   0  0  0  0  0  0  0  0  0  0  0  0
   17.5241    2.8684    0.0000 H   0  0  0  0  0  0  0  0  0  0  0  0
   14.8570    3.7401    0.0000 H   0  0  0  0  0  0  0  0  0  0  0  0
   16.4422    4.0742    0.0000 H   0  0  0  0  0  0  0  0  0  0  0  0
  1  6  1  0  0  0  0
  1 26  1  0  0  0  0
  2 23  2  0  0  0  0
  3 12  1  0  0  0  0
  3 13  1  0  0  0  0
  3 14  1  0  0  0  0
  4 16  1  0  0  0  0
  4 17  1  0  0  0  0
  4 22  1  0  0  0  0
  5  7  1  0  0  0  0
  5 23  1  0  0  0  0
  5 57  1  0  0  0  0
  6 22  2  0  0  0  0
  7  8  1  0  0  0  0
  7  9  1  0  0  0  0
  7 38  1  0  0  0  0
  8 10  1  0  0  0  0
  8 39  1  0  0  0  0
  8 40  1  0  0  0  0
  9 11  2  0  0  0  0
  9 19  1  0  0  0  0
 10 11  1  0  0  0  0
 10 41  1  0  0  0  0
 10 42  1  0  0  0  0
 11 20  1  0  0  0  0
 12 15  1  0  0  0  0
 12 43  1  0  0  0  0
 12 44  1  0  0  0  0
 13 16  1  0  0  0  0
 13 45  1  0  0  0  0
 13 46  1  0  0  0  0
 14 17  1  0  0  0  0
 14 47  1  0  0  0  0
 14 48  1  0  0  0  0
 15 18  1  0  0  0  0
 15 49  1  0  0  0  0
 15 50  1  0  0  0  0
 16 51  1  0  0  0  0
 16 52  1  0  0  0  0
 17 53  1  0  0  0  0
 17 54  1  0  0  0  0
 18 19  2  0  0  0  0
 18 21  1  0  0  0  0
 19 55  1  0  0  0  0
 20 21  2  0  0  0  0
 20 56  1  0  0  0  0
 21 58  1  0  0  0  0
 22 24  1  0  0  0  0
 23 25  1  0  0  0  0
 24 26  1  0  0  0  0
 24 28  2  0  0  0  0
 25 27  1  0  0  0  0
 25 59  1  0  0  0  0
 25 60  1  0  0  0  0
 26 29  2  0  0  0  0
 27 30  1  0  0  0  0
 27 61  1  0  0  0  0
 27 62  1  0  0  0  0
 28 31  1  0  0  0  0
 28 63  1  0  0  0  0
 29 32  1  0  0  0  0
 29 64  1  0  0  0  0
 30 33  2  0  0  0  0
 30 34  1  0  0  0  0
 31 32  2  0  0  0  0
 31 65  1  0  0  0  0
 32 66  1  0  0  0  0
 33 35  1  0  0  0  0
 33 67  1  0  0  0  0
 34 36  2  0  0  0  0
 34 68  1  0  0  0  0
 35 37  2  0  0  0  0
 35 69  1  0  0  0  0
 36 37  1  0  0  0  0
 36 70  1  0  0  0  0
 37 71  1  0  0  0  0
M  END
> <PUBCHEM_COMPOUND_CID>
44447028

> <PUBCHEM_COMPOUND_CANONICALIZED>
1

> <PUBCHEM_CACTVS_COMPLEXITY>
737

> <PUBCHEM_CACTVS_HBOND_ACCEPTOR>
5

> <PUBCHEM_CACTVS_HBOND_DONOR>
1

> <PUBCHEM_CACTVS_ROTATABLE_BOND>
8

> <PUBCHEM_CACTVS_SUBSKEYS>
AAADcfB7oABAAAAAAAAAAAAAAAAAAeIAAAA8YMEAAAAAAHgB9AAAHgQQQAAADCjB2gQxsdPAAACsAiNycACDABAhAABJmLkoRJiIYLLAmZGUIAxglgLIyAcYiMCOwAACAAAUAACAAAQAACgAACAACQAAAA==

> <PUBCHEM_IUPAC_OPENEYE_NAME>
N-[6-[2-[4-(1,2-benzothiazol-3-yl)piperazin-1-yl]ethyl]indan-1-yl]-3-phenyl-propanamide

> <PUBCHEM_IUPAC_CAS_NAME>
N-[6-[2-[4-(1,2-benzothiazol-3-yl)-1-piperazinyl]ethyl]-2,3-dihydro-1H-inden-1-yl]-3-phenylpropanamide

> <PUBCHEM_IUPAC_NAME_MARKUP>
<I>N</I>-[6-[2-[4-(1,2-benzothiazol-3-yl)piperazin-1-yl]ethyl]-2,3-dihydro-1<I>H</I>-inden-1-yl]-3-phenylpropanamide

> <PUBCHEM_IUPAC_NAME>
N-[6-[2-[4-(1,2-benzothiazol-3-yl)piperazin-1-yl]ethyl]-2,3-dihydro-1H-inden-1-yl]-3-phenylpropanamide

> <PUBCHEM_IUPAC_SYSTEMATIC_NAME>
N-[6-[2-[4-(1,2-benzothiazol-3-yl)piperazin-1-yl]ethyl]-2,3-dihydro-1H-inden-1-yl]-3-phenyl-propanamide

> <PUBCHEM_IUPAC_TRADITIONAL_NAME>
N-[6-[2-[4-(1,2-benzothiazol-3-yl)piperazino]ethyl]indan-1-yl]-3-phenyl-propionamide

> <PUBCHEM_IUPAC_INCHI>
InChI=1S/C31H34N4OS/c36-30(15-11-23-6-2-1-3-7-23)32-28-14-13-25-12-10-24(22-27(25)28)16-17-34-18-20-35(21-19-34)31-26-8-4-5-9-29(26)37-33-31/h1-10,12,22,28H,11,13-21H2,(H,32,36)

> <PUBCHEM_IUPAC_INCHIKEY>
WLZVXPFXXASTLW-UHFFFAOYSA-N

> <PUBCHEM_XLOGP3_AA>
6

> <PUBCHEM_EXACT_MASS>
510.24533289

> <PUBCHEM_MOLECULAR_FORMULA>
C31H34N4OS

> <PUBCHEM_MOLECULAR_WEIGHT>
510.7

> <PUBCHEM_OPENEYE_CAN_SMILES>
C1CC2=C(C1NC(=O)CCC3=CC=CC=C3)C=C(C=C2)CCN4CCN(CC4)C5=NSC6=CC=CC=C65

> <PUBCHEM_OPENEYE_ISO_SMILES>
C1CC2=C(C1NC(=O)CCC3=CC=CC=C3)C=C(C=C2)CCN4CCN(CC4)C5=NSC6=CC=CC=C65

> <PUBCHEM_CACTVS_TPSA>
76.7

> <PUBCHEM_MONOISOTOPIC_WEIGHT>
510.24533289

> <PUBCHEM_TOTAL_CHARGE>
0

> <PUBCHEM_HEAVY_ATOM_COUNT>
37

> <PUBCHEM_ATOM_DEF_STEREO_COUNT>
0

> <PUBCHEM_ATOM_UDEF_STEREO_COUNT>
1

> <PUBCHEM_BOND_DEF_STEREO_COUNT>
0

> <PUBCHEM_BOND_UDEF_STEREO_COUNT>
0

> <PUBCHEM_ISOTOPIC_ATOM_COUNT>
0

> <PUBCHEM_COMPONENT_COUNT>
1

> <PUBCHEM_CACTVS_TAUTO_COUNT>
-1

> <PUBCHEM_COORDINATE_TYPE>
1
5
255

> <PUBCHEM_BONDANNOTATIONS>
1  26  8
1  6  8
11  20  8
18  19  8
18  21  8
20  21  8
22  24  8
24  26  8
24  28  8
26  29  8
28  31  8
29  32  8
30  33  8
30  34  8
31  32  8
33  35  8
34  36  8
35  37  8
36  37  8
7  5  3
6  22  8
9  11  8
9  19  8

$$$$
