166629403
  -OEChem-09292322022D

 41 41  0     1  0  0  0  0  0999 V2000
    4.5981    2.5194    0.0000 O   0  0  0  0  0  0  0  0  0  0  0  0
    2.0000    0.0194    0.0000 O   0  0  0  0  0  0  0  0  0  0  0  0
    3.3660   -3.0194    0.0000 O   0  0  0  0  0  0  0  0  0  0  0  0
    8.0622    1.5194    0.0000 O   0  0  0  0  0  0  0  0  0  0  0  0
    7.1962    0.0194    0.0000 O   0  0  0  0  0  0  0  0  0  0  0  0
    3.7320    0.0194    0.0000 N   0  0  0  0  0  0  0  0  0  0  0  0
    5.4641    1.0194    0.0000 N   0  0  0  0  0  0  0  0  0  0  0  0
    2.8660    1.5194    0.0000 C   0  0  0  0  0  0  0  0  0  0  0  0
    2.8660    2.5194    0.0000 C   0  0  0  0  0  0  0  0  0  0  0  0
    3.7320    1.0194    0.0000 C   0  0  1  0  0  0  0  0  0  0  0  0
    2.0000    3.0194    0.0000 C   0  0  0  0  0  0  0  0  0  0  0  0
    3.7320    3.0194    0.0000 C   0  0  0  0  0  0  0  0  0  0  0  0
    4.5981    1.5194    0.0000 C   0  0  0  0  0  0  0  0  0  0  0  0
    2.8660   -0.4806    0.0000 C   0  0  0  0  0  0  0  0  0  0  0  0
    6.3301    1.5194    0.0000 C   0  0  0  0  0  0  0  0  0  0  0  0
    2.8660   -1.4806    0.0000 C   0  0  0  0  0  0  0  0  0  0  0  0
    2.0570   -2.0684    0.0000 C   0  0  0  0  0  0  0  0  0  0  0  0
    3.6750   -2.0684    0.0000 C   0  0  0  0  0  0  0  0  0  0  0  0
    7.1962    1.0194    0.0000 C   0  0  0  0  0  0  0  0  0  0  0  0
    2.3660   -3.0194    0.0000 C   0  0  0  0  0  0  0  0  0  0  0  0
    8.9282    1.0194    0.0000 C   0  0  0  0  0  0  0  0  0  0  0  0
    2.2554    1.6271    0.0000 H   0  0  0  0  0  0  0  0  0  0  0  0
    2.6540    0.9368    0.0000 H   0  0  0  0  0  0  0  0  0  0  0  0
    2.8660    3.1394    0.0000 H   0  0  0  0  0  0  0  0  0  0  0  0
    4.2690    0.7094    0.0000 H   0  0  0  0  0  0  0  0  0  0  0  0
    2.3100    3.5564    0.0000 H   0  0  0  0  0  0  0  0  0  0  0  0
    1.4631    3.3294    0.0000 H   0  0  0  0  0  0  0  0  0  0  0  0
    1.6900    2.4825    0.0000 H   0  0  0  0  0  0  0  0  0  0  0  0
    4.0420    2.4825    0.0000 H   0  0  0  0  0  0  0  0  0  0  0  0
    4.2690    3.3294    0.0000 H   0  0  0  0  0  0  0  0  0  0  0  0
    3.4220    3.5564    0.0000 H   0  0  0  0  0  0  0  0  0  0  0  0
    4.2690   -0.2906    0.0000 H   0  0  0  0  0  0  0  0  0  0  0  0
    5.4641    0.3994    0.0000 H   0  0  0  0  0  0  0  0  0  0  0  0
    6.7287    1.9944    0.0000 H   0  0  0  0  0  0  0  0  0  0  0  0
    5.9316    1.9944    0.0000 H   0  0  0  0  0  0  0  0  0  0  0  0
    1.4674   -1.8768    0.0000 H   0  0  0  0  0  0  0  0  0  0  0  0
    4.2647   -1.8768    0.0000 H   0  0  0  0  0  0  0  0  0  0  0  0
    2.0016   -3.5210    0.0000 H   0  0  0  0  0  0  0  0  0  0  0  0
    8.6182    0.4825    0.0000 H   0  0  0  0  0  0  0  0  0  0  0  0
    9.4651    0.7094    0.0000 H   0  0  0  0  0  0  0  0  0  0  0  0
    9.2382    1.5564    0.0000 H   0  0  0  0  0  0  0  0  0  0  0  0
  1 13  2  0  0  0  0
  2 14  2  0  0  0  0
  3 18  1  0  0  0  0
  3 20  1  0  0  0  0
  4 19  1  0  0  0  0
  4 21  1  0  0  0  0
  5 19  2  0  0  0  0
 10  6  1  1  0  0  0
  6 14  1  0  0  0  0
  6 32  1  0  0  0  0
  7 13  1  0  0  0  0
  7 15  1  0  0  0  0
  7 33  1  0  0  0  0
  8  9  1  0  0  0  0
  8 10  1  0  0  0  0
  8 22  1  0  0  0  0
  8 23  1  0  0  0  0
  9 11  1  0  0  0  0
  9 12  1  0  0  0  0
  9 24  1  0  0  0  0
 10 13  1  0  0  0  0
 10 25  1  0  0  0  0
 11 26  1  0  0  0  0
 11 27  1  0  0  0  0
 11 28  1  0  0  0  0
 12 29  1  0  0  0  0
 12 30  1  0  0  0  0
 12 31  1  0  0  0  0
 14 16  1  0  0  0  0
 15 19  1  0  0  0  0
 15 34  1  0  0  0  0
 15 35  1  0  0  0  0
 16 17  1  0  0  0  0
 16 18  2  0  0  0  0
 17 20  2  0  0  0  0
 17 36  1  0  0  0  0
 18 37  1  0  0  0  0
 20 38  1  0  0  0  0
 21 39  1  0  0  0  0
 21 40  1  0  0  0  0
 21 41  1  0  0  0  0
M  END
> <PUBCHEM_COMPOUND_CID>
166629403

> <PUBCHEM_COMPOUND_CANONICALIZED>
1

> <PUBCHEM_CACTVS_COMPLEXITY>
384

> <PUBCHEM_CACTVS_HBOND_ACCEPTOR>
5

> <PUBCHEM_CACTVS_HBOND_DONOR>
2

> <PUBCHEM_CACTVS_ROTATABLE_BOND>
8

> <PUBCHEM_CACTVS_SUBSKEYS>
AAADceBzOAAAAAAAAAAAAAAAAAAAASAAAAAAAAAAAAAAAAABgAAAHgAQAAAADSjhmAYyDILABECIAinSmACCCAAkIAAIiIGODMgOZh4MpSsXGWjGdhGQIYA/AAAMAAAAAAAAAAAAAAAAAAAAAAAAAAAAAA==

> <PUBCHEM_IUPAC_OPENEYE_NAME>
methyl 2-[[(2S)-2-(furan-3-carbonylamino)-4-methyl-pentanoyl]amino]acetate

> <PUBCHEM_IUPAC_CAS_NAME>
2-[[(2S)-2-[[3-furanyl(oxo)methyl]amino]-4-methyl-1-oxopentyl]amino]acetic acid methyl ester

> <PUBCHEM_IUPAC_NAME_MARKUP>
methyl 2-[[(2<I>S</I>)-2-(furan-3-carbonylamino)-4-methylpentanoyl]amino]acetate

> <PUBCHEM_IUPAC_NAME>
methyl 2-[[(2S)-2-(furan-3-carbonylamino)-4-methylpentanoyl]amino]acetate

> <PUBCHEM_IUPAC_SYSTEMATIC_NAME>
methyl 2-[[(2S)-2-(furan-3-ylcarbonylamino)-4-methyl-pentanoyl]amino]ethanoate

> <PUBCHEM_IUPAC_TRADITIONAL_NAME>
2-[[(2S)-2-(3-furoylamino)-4-methyl-pentanoyl]amino]acetic acid methyl ester

> <PUBCHEM_IUPAC_INCHI>
InChI=1S/C14H20N2O5/c1-9(2)6-11(14(19)15-7-12(17)20-3)16-13(18)10-4-5-21-8-10/h4-5,8-9,11H,6-7H2,1-3H3,(H,15,19)(H,16,18)/t11-/m0/s1

> <PUBCHEM_IUPAC_INCHIKEY>
ZMGOYEZGTTXOIX-NSHDSACASA-N

> <PUBCHEM_XLOGP3_AA>
1.3

> <PUBCHEM_EXACT_MASS>
296.13722174

> <PUBCHEM_MOLECULAR_FORMULA>
C14H20N2O5

> <PUBCHEM_MOLECULAR_WEIGHT>
296.32

> <PUBCHEM_OPENEYE_CAN_SMILES>
CC(C)CC(C(=O)NCC(=O)OC)NC(=O)C1=COC=C1

> <PUBCHEM_OPENEYE_ISO_SMILES>
CC(C)C[C@@H](C(=O)NCC(=O)OC)NC(=O)C1=COC=C1

> <PUBCHEM_CACTVS_TPSA>
97.6

> <PUBCHEM_MONOISOTOPIC_WEIGHT>
296.13722174

> <PUBCHEM_TOTAL_CHARGE>
0

> <PUBCHEM_HEAVY_ATOM_COUNT>
21

> <PUBCHEM_ATOM_DEF_STEREO_COUNT>
1

> <PUBCHEM_ATOM_UDEF_STEREO_COUNT>
0

> <PUBCHEM_BOND_DEF_STEREO_COUNT>
0

> <PUBCHEM_BOND_UDEF_STEREO_COUNT>
0

> <PUBCHEM_ISOTOPIC_ATOM_COUNT>
0

> <PUBCHEM_COMPONENT_COUNT>
1

> <PUBCHEM_CACTVS_TAUTO_COUNT>
-1

> <PUBCHEM_COORDINATE_TYPE>
1
5
255

> <PUBCHEM_BONDANNOTATIONS>
16  17  8
16  18  8
17  20  8
3  18  8
3  20  8
10  6  5

$$$$
