11519858
  -OEChem-09292322492D

 74 79  0     1  0  0  0  0  0999 V2000
    2.9999    2.7184    0.0000 S   0  0  0  0  0  0  0  0  0  0  0  0
   10.7649   -1.0482    0.0000 S   0  0  0  0  0  0  0  0  0  0  0  0
    2.9884   -0.3509    0.0000 O   0  0  0  0  0  0  0  0  0  0  0  0
    2.0000    2.7300    0.0000 O   0  0  0  0  0  0  0  0  0  0  0  0
    3.9999    2.7068    0.0000 O   0  0  0  0  0  0  0  0  0  0  0  0
    7.7650    0.6838    0.0000 N   0  0  3  0  0  0  0  0  0  0  0  0
    2.9884    1.7185    0.0000 N   0  0  3  0  0  0  0  0  0  0  0  0
   12.3527   -1.8573    0.0000 N   0  0  0  0  0  0  0  0  0  0  0  0
   12.3527   -0.2392    0.0000 N   0  0  0  0  0  0  0  0  0  0  0  0
   13.3038   -0.5482    0.0000 N   0  0  0  0  0  0  0  0  0  0  0  0
   16.7934   -1.9081    0.0000 N   0  0  0  0  0  0  0  0  0  0  0  0
    7.3406    1.5680    0.0000 C   0  0  0  0  0  0  0  0  0  0  0  0
    7.3406   -0.2004    0.0000 C   0  0  0  0  0  0  0  0  0  0  0  0
    6.3853    1.7902    0.0000 C   0  0  0  0  0  0  0  0  0  0  0  0
    5.6144    1.1838    0.0000 C   0  0  0  0  0  0  0  0  0  0  0  0
    6.3853   -0.4225    0.0000 C   0  0  0  0  0  0  0  0  0  0  0  0
    5.6144    0.1838    0.0000 C   0  0  0  0  0  0  0  0  0  0  0  0
    8.7650    0.6838    0.0000 C   0  0  0  0  0  0  0  0  0  0  0  0
    3.8823    1.1838    0.0000 C   0  0  0  0  0  0  0  0  0  0  0  0
    4.7483    1.6838    0.0000 C   0  0  0  0  0  0  0  0  0  0  0  0
    4.7483   -0.3162    0.0000 C   0  0  0  0  0  0  0  0  0  0  0  0
    3.8823    0.1838    0.0000 C   0  0  0  0  0  0  0  0  0  0  0  0
    9.2650   -0.1822    0.0000 C   0  0  0  0  0  0  0  0  0  0  0  0
    2.0823    1.2046    0.0000 C   0  0  0  0  0  0  0  0  0  0  0  0
    2.0823    0.1630    0.0000 C   0  0  0  0  0  0  0  0  0  0  0  0
   10.2649   -0.1822    0.0000 C   0  0  0  0  0  0  0  0  0  0  0  0
    3.0115    3.7183    0.0000 C   0  0  0  0  0  0  0  0  0  0  0  0
   11.7649   -1.0482    0.0000 C   0  0  0  0  0  0  0  0  0  0  0  0
   13.3038   -1.5482    0.0000 C   0  0  0  0  0  0  0  0  0  0  0  0
   14.1128   -2.1360    0.0000 C   0  0  0  0  0  0  0  0  0  0  0  0
   15.0264   -1.7293    0.0000 C   0  0  0  0  0  0  0  0  0  0  0  0
   12.0437   -2.8083    0.0000 C   0  0  0  0  0  0  0  0  0  0  0  0
   15.8354   -2.3171    0.0000 C   0  0  0  0  0  0  0  0  0  0  0  0
   14.0083   -3.1306    0.0000 C   0  0  0  0  0  0  0  0  0  0  0  0
   15.1192   -0.6918    0.0000 C   0  0  0  0  0  0  0  0  0  0  0  0
   15.7308   -3.3116    0.0000 C   0  0  0  0  0  0  0  0  0  0  0  0
   14.8173   -3.7183    0.0000 C   0  0  0  0  0  0  0  0  0  0  0  0
   16.0675   -0.2608    0.0000 C   0  0  0  0  0  0  0  0  0  0  0  0
   16.9102   -0.8731    0.0000 C   0  0  0  0  0  0  0  0  0  0  0  0
   17.8253   -0.4699    0.0000 C   0  0  0  0  0  0  0  0  0  0  0  0
    7.9454    1.7046    0.0000 H   0  0  0  0  0  0  0  0  0  0  0  0
    7.3425    2.1880    0.0000 H   0  0  0  0  0  0  0  0  0  0  0  0
    7.3425   -0.8204    0.0000 H   0  0  0  0  0  0  0  0  0  0  0  0
    7.9454   -0.3370    0.0000 H   0  0  0  0  0  0  0  0  0  0  0  0
    6.6570    2.3474    0.0000 H   0  0  0  0  0  0  0  0  0  0  0  0
    5.9028    2.1795    0.0000 H   0  0  0  0  0  0  0  0  0  0  0  0
    5.9028   -0.8119    0.0000 H   0  0  0  0  0  0  0  0  0  0  0  0
    6.6570   -0.9798    0.0000 H   0  0  0  0  0  0  0  0  0  0  0  0
    9.3476    0.8959    0.0000 H   0  0  0  0  0  0  0  0  0  0  0  0
    8.6573    1.2944    0.0000 H   0  0  0  0  0  0  0  0  0  0  0  0
    4.7483    2.3038    0.0000 H   0  0  0  0  0  0  0  0  0  0  0  0
    4.7483   -0.9362    0.0000 H   0  0  0  0  0  0  0  0  0  0  0  0
    8.6823   -0.3943    0.0000 H   0  0  0  0  0  0  0  0  0  0  0  0
    9.3726   -0.7928    0.0000 H   0  0  0  0  0  0  0  0  0  0  0  0
    1.8732    1.7883    0.0000 H   0  0  0  0  0  0  0  0  0  0  0  0
    1.4714    1.0985    0.0000 H   0  0  0  0  0  0  0  0  0  0  0  0
    1.4714    0.2691    0.0000 H   0  0  0  0  0  0  0  0  0  0  0  0
    1.8732   -0.4207    0.0000 H   0  0  0  0  0  0  0  0  0  0  0  0
   10.8476    0.0298    0.0000 H   0  0  0  0  0  0  0  0  0  0  0  0
   10.1573    0.4284    0.0000 H   0  0  0  0  0  0  0  0  0  0  0  0
    3.6315    3.7112    0.0000 H   0  0  0  0  0  0  0  0  0  0  0  0
    3.0187    4.3383    0.0000 H   0  0  0  0  0  0  0  0  0  0  0  0
    2.3915    3.7255    0.0000 H   0  0  0  0  0  0  0  0  0  0  0  0
   11.4541   -2.6167    0.0000 H   0  0  0  0  0  0  0  0  0  0  0  0
   11.8521   -3.3980    0.0000 H   0  0  0  0  0  0  0  0  0  0  0  0
   12.6334   -2.9999    0.0000 H   0  0  0  0  0  0  0  0  0  0  0  0
   13.4419   -3.3827    0.0000 H   0  0  0  0  0  0  0  0  0  0  0  0
   14.6135   -0.3332    0.0000 H   0  0  0  0  0  0  0  0  0  0  0  0
   16.2324   -3.6760    0.0000 H   0  0  0  0  0  0  0  0  0  0  0  0
   14.7525   -4.3349    0.0000 H   0  0  0  0  0  0  0  0  0  0  0  0
   16.1300    0.3560    0.0000 H   0  0  0  0  0  0  0  0  0  0  0  0
   18.0753   -1.0372    0.0000 H   0  0  0  0  0  0  0  0  0  0  0  0
   18.3927   -0.2199    0.0000 H   0  0  0  0  0  0  0  0  0  0  0  0
   17.5753    0.0975    0.0000 H   0  0  0  0  0  0  0  0  0  0  0  0
  1  4  2  0  0  0  0
  1  5  2  0  0  0  0
  1  7  1  0  0  0  0
  1 27  1  0  0  0  0
  2 26  1  0  0  0  0
  2 28  1  0  0  0  0
  3 22  1  0  0  0  0
  3 25  1  0  0  0  0
  6 12  1  0  0  0  0
  6 13  1  0  0  0  0
  6 18  1  0  0  0  0
  7 19  1  0  0  0  0
  7 24  1  0  0  0  0
  8 28  1  0  0  0  0
  8 29  1  0  0  0  0
  8 32  1  0  0  0  0
  9 10  1  0  0  0  0
  9 28  2  0  0  0  0
 10 29  2  0  0  0  0
 11 33  1  0  0  0  0
 11 39  2  0  0  0  0
 12 14  1  0  0  0  0
 12 41  1  0  0  0  0
 12 42  1  0  0  0  0
 13 16  1  0  0  0  0
 13 43  1  0  0  0  0
 13 44  1  0  0  0  0
 14 15  1  0  0  0  0
 14 45  1  0  0  0  0
 14 46  1  0  0  0  0
 15 17  1  0  0  0  0
 15 20  2  0  0  0  0
 16 17  1  0  0  0  0
 16 47  1  0  0  0  0
 16 48  1  0  0  0  0
 17 21  2  0  0  0  0
 18 23  1  0  0  0  0
 18 49  1  0  0  0  0
 18 50  1  0  0  0  0
 19 20  1  0  0  0  0
 19 22  2  0  0  0  0
 20 51  1  0  0  0  0
 21 22  1  0  0  0  0
 21 52  1  0  0  0  0
 23 26  1  0  0  0  0
 23 53  1  0  0  0  0
 23 54  1  0  0  0  0
 24 25  1  0  0  0  0
 24 55  1  0  0  0  0
 24 56  1  0  0  0  0
 25 57  1  0  0  0  0
 25 58  1  0  0  0  0
 26 59  1  0  0  0  0
 26 60  1  0  0  0  0
 27 61  1  0  0  0  0
 27 62  1  0  0  0  0
 27 63  1  0  0  0  0
 29 30  1  0  0  0  0
 30 31  2  0  0  0  0
 30 34  1  0  0  0  0
 31 33  1  0  0  0  0
 31 35  1  0  0  0  0
 32 64  1  0  0  0  0
 32 65  1  0  0  0  0
 32 66  1  0  0  0  0
 33 36  2  0  0  0  0
 34 37  2  0  0  0  0
 34 67  1  0  0  0  0
 35 38  2  0  0  0  0
 35 68  1  0  0  0  0
 36 37  1  0  0  0  0
 36 69  1  0  0  0  0
 37 70  1  0  0  0  0
 38 39  1  0  0  0  0
 38 71  1  0  0  0  0
 39 40  1  0  0  0  0
 40 72  1  0  0  0  0
 40 73  1  0  0  0  0
 40 74  1  0  0  0  0
M  END
> <PUBCHEM_COMPOUND_CID>
11519858

> <PUBCHEM_COMPOUND_CANONICALIZED>
1

> <PUBCHEM_CACTVS_COMPLEXITY>
953

> <PUBCHEM_CACTVS_HBOND_ACCEPTOR>
9

> <PUBCHEM_CACTVS_HBOND_DONOR>
0

> <PUBCHEM_CACTVS_ROTATABLE_BOND>
7

> <PUBCHEM_CACTVS_SUBSKEYS>
AAADcfB7sABgAAAAAAAAAAAAAAAAAWAAAAA8eIEABYAAAACx/AAAHgQIQAAADAzl3waz1vcMFAqiAyZiZHCS2CthIrAd2CA/bJiOLuLkuZuHOCjkyBPY6AeQ0PIOqAABQAASEABQAAKAACQgAAAAAAAAAA==

> <PUBCHEM_IUPAC_OPENEYE_NAME>
8-[3-[[4-methyl-5-(2-methyl-5-quinolyl)-1,2,4-triazol-3-yl]sulfanyl]propyl]-4-methylsulfonyl-2,3,6,7,9,10-hexahydro-[1,4]oxazino[2,3-h][3]benzazepine

> <PUBCHEM_IUPAC_CAS_NAME>
8-[3-[[4-methyl-5-(2-methyl-5-quinolinyl)-1,2,4-triazol-3-yl]thio]propyl]-4-methylsulfonyl-2,3,6,7,9,10-hexahydro-[1,4]oxazino[2,3-h][3]benzazepine

> <PUBCHEM_IUPAC_NAME_MARKUP>
8-[3-[[4-methyl-5-(2-methylquinolin-5-yl)-1,2,4-triazol-3-yl]sulfanyl]propyl]-4-methylsulfonyl-2,3,6,7,9,10-hexahydro-[1,4]oxazino[2,3-h][3]benzazepine

> <PUBCHEM_IUPAC_NAME>
8-[3-[[4-methyl-5-(2-methylquinolin-5-yl)-1,2,4-triazol-3-yl]sulfanyl]propyl]-4-methylsulfonyl-2,3,6,7,9,10-hexahydro-[1,4]oxazino[2,3-h][3]benzazepine

> <PUBCHEM_IUPAC_SYSTEMATIC_NAME>
8-[3-[[4-methyl-5-(2-methylquinolin-5-yl)-1,2,4-triazol-3-yl]sulfanyl]propyl]-4-methylsulfonyl-2,3,6,7,9,10-hexahydro-[1,4]oxazino[2,3-h][3]benzazepine

> <PUBCHEM_IUPAC_TRADITIONAL_NAME>
4-mesyl-8-[3-[[4-methyl-5-(2-methyl-5-quinolyl)-1,2,4-triazol-3-yl]thio]propyl]-2,3,6,7,9,10-hexahydro-[1,4]oxazino[2,3-h][3]benzazepine

> <PUBCHEM_IUPAC_INCHI>
InChI=1S/C29H34N6O3S2/c1-20-8-9-23-24(6-4-7-25(23)30-20)28-31-32-29(33(28)2)39-17-5-12-34-13-10-21-18-26-27(19-22(21)11-14-34)38-16-15-35(26)40(3,36)37/h4,6-9,18-19H,5,10-17H2,1-3H3

> <PUBCHEM_IUPAC_INCHIKEY>
UTIUIZHJMLEUQC-UHFFFAOYSA-N

> <PUBCHEM_XLOGP3_AA>
3.9

> <PUBCHEM_EXACT_MASS>
578.21338131

> <PUBCHEM_MOLECULAR_FORMULA>
C29H34N6O3S2

> <PUBCHEM_MOLECULAR_WEIGHT>
578.8

> <PUBCHEM_OPENEYE_CAN_SMILES>
CC1=NC2=CC=CC(=C2C=C1)C3=NN=C(N3C)SCCCN4CCC5=CC6=C(C=C5CC4)OCCN6S(=O)(=O)C

> <PUBCHEM_OPENEYE_ISO_SMILES>
CC1=NC2=CC=CC(=C2C=C1)C3=NN=C(N3C)SCCCN4CCC5=CC6=C(C=C5CC4)OCCN6S(=O)(=O)C

> <PUBCHEM_CACTVS_TPSA>
127

> <PUBCHEM_MONOISOTOPIC_WEIGHT>
578.21338131

> <PUBCHEM_TOTAL_CHARGE>
0

> <PUBCHEM_HEAVY_ATOM_COUNT>
40

> <PUBCHEM_ATOM_DEF_STEREO_COUNT>
0

> <PUBCHEM_ATOM_UDEF_STEREO_COUNT>
0

> <PUBCHEM_BOND_DEF_STEREO_COUNT>
0

> <PUBCHEM_BOND_UDEF_STEREO_COUNT>
0

> <PUBCHEM_ISOTOPIC_ATOM_COUNT>
0

> <PUBCHEM_COMPONENT_COUNT>
1

> <PUBCHEM_CACTVS_TAUTO_COUNT>
-1

> <PUBCHEM_COORDINATE_TYPE>
1
5
255

> <PUBCHEM_BONDANNOTATIONS>
10  29  8
11  33  8
11  39  8
15  17  8
15  20  8
17  21  8
19  20  8
19  22  8
21  22  8
30  31  8
30  34  8
31  33  8
31  35  8
33  36  8
34  37  8
35  38  8
36  37  8
38  39  8
8  28  8
8  29  8
9  10  8
9  28  8

$$$$
