155533996
  -OEChem-09292322412D

 67 69  0     1  0  0  0  0  0999 V2000
    0.0000    5.1200    0.0000 Cl  0  0  0  0  0  0  0  0  0  0  0  0
    7.6631    7.7865    0.0000 Cl  0  0  0  0  0  0  0  0  0  0  0  0
   11.3923    2.1200    0.0000 O   0  0  0  0  0  0  0  0  0  0  0  0
    6.1962    3.1200    0.0000 N   0  0  3  0  0  0  0  0  0  0  0  0
   10.5263    3.6200    0.0000 N   0  0  0  0  0  0  0  0  0  0  0  0
    4.4641    3.1200    0.0000 C   0  0  3  0  0  0  0  0  0  0  0  0
    3.4641    3.1200    0.0000 C   0  0  3  0  0  0  0  0  0  0  0  0
    3.9641    2.2540    0.0000 C   0  0  0  0  0  0  0  0  0  0  0  0
    5.3301    3.6200    0.0000 C   0  0  0  0  0  0  0  0  0  0  0  0
    2.5981    3.6200    0.0000 C   0  0  0  0  0  0  0  0  0  0  0  0
    7.0622    3.6200    0.0000 C   0  0  0  0  0  0  0  0  0  0  0  0
    6.1962    2.1200    0.0000 C   0  0  0  0  0  0  0  0  0  0  0  0
    2.5981    4.6200    0.0000 C   0  0  0  0  0  0  0  0  0  0  0  0
    1.7320    3.1200    0.0000 C   0  0  0  0  0  0  0  0  0  0  0  0
    7.9282    3.1200    0.0000 C   0  0  0  0  0  0  0  0  0  0  0  0
    7.0622    1.6200    0.0000 C   0  0  0  0  0  0  0  0  0  0  0  0
    1.7320    5.1200    0.0000 C   0  0  0  0  0  0  0  0  0  0  0  0
    0.8660    3.6200    0.0000 C   0  0  0  0  0  0  0  0  0  0  0  0
    0.8660    4.6200    0.0000 C   0  0  0  0  0  0  0  0  0  0  0  0
    8.7942    3.6200    0.0000 C   0  0  0  0  0  0  0  0  0  0  0  0
    7.0622    0.6200    0.0000 C   0  0  0  0  0  0  0  0  0  0  0  0
    9.6602    3.1200    0.0000 C   0  0  0  0  0  0  0  0  0  0  0  0
   11.3923    3.1200    0.0000 C   0  0  0  0  0  0  0  0  0  0  0  0
   12.2583    3.6200    0.0000 C   0  0  0  0  0  0  0  0  0  0  0  0
   13.1244    3.1200    0.0000 C   0  0  0  0  0  0  0  0  0  0  0  0
   12.2583    4.6200    0.0000 C   0  0  0  0  0  0  0  0  0  0  0  0
   13.9904    3.6200    0.0000 C   0  0  0  0  0  0  0  0  0  0  0  0
   13.9904    4.6200    0.0000 C   0  0  0  0  0  0  0  0  0  0  0  0
   13.1244    5.1200    0.0000 C   0  0  0  0  0  0  0  0  0  0  0  0
   14.8843    3.0853    0.0000 C   0  0  0  0  0  0  0  0  0  0  0  0
   14.8843    5.1547    0.0000 C   0  0  0  0  0  0  0  0  0  0  0  0
   15.7904    3.5992    0.0000 C   0  0  0  0  0  0  0  0  0  0  0  0
   15.7904    4.6408    0.0000 C   0  0  0  0  0  0  0  0  0  0  0  0
    4.3036    3.7189    0.0000 H   0  0  0  0  0  0  0  0  0  0  0  0
    3.6246    3.7189    0.0000 H   0  0  0  0  0  0  0  0  0  0  0  0
    3.4892    1.8554    0.0000 H   0  0  0  0  0  0  0  0  0  0  0  0
    4.4390    1.8554    0.0000 H   0  0  0  0  0  0  0  0  0  0  0  0
    5.7287    4.0950    0.0000 H   0  0  0  0  0  0  0  0  0  0  0  0
    4.9316    4.0950    0.0000 H   0  0  0  0  0  0  0  0  0  0  0  0
    7.4607    4.0950    0.0000 H   0  0  0  0  0  0  0  0  0  0  0  0
    6.6636    4.0950    0.0000 H   0  0  0  0  0  0  0  0  0  0  0  0
    5.5856    2.2277    0.0000 H   0  0  0  0  0  0  0  0  0  0  0  0
    5.9841    1.5374    0.0000 H   0  0  0  0  0  0  0  0  0  0  0  0
    3.1350    4.9300    0.0000 H   0  0  0  0  0  0  0  0  0  0  0  0
    1.7320    2.5000    0.0000 H   0  0  0  0  0  0  0  0  0  0  0  0
    7.5297    2.6450    0.0000 H   0  0  0  0  0  0  0  0  0  0  0  0
    8.3267    2.6450    0.0000 H   0  0  0  0  0  0  0  0  0  0  0  0
    7.6728    1.5123    0.0000 H   0  0  0  0  0  0  0  0  0  0  0  0
    7.2742    2.2026    0.0000 H   0  0  0  0  0  0  0  0  0  0  0  0
    1.7320    5.7400    0.0000 H   0  0  0  0  0  0  0  0  0  0  0  0
    0.3291    3.3100    0.0000 H   0  0  0  0  0  0  0  0  0  0  0  0
    9.1928    4.0950    0.0000 H   0  0  0  0  0  0  0  0  0  0  0  0
    8.3957    4.0950    0.0000 H   0  0  0  0  0  0  0  0  0  0  0  0
    6.4422    0.6200    0.0000 H   0  0  0  0  0  0  0  0  0  0  0  0
    7.0622    0.0000    0.0000 H   0  0  0  0  0  0  0  0  0  0  0  0
    7.6822    0.6200    0.0000 H   0  0  0  0  0  0  0  0  0  0  0  0
    9.2617    2.6450    0.0000 H   0  0  0  0  0  0  0  0  0  0  0  0
   10.0588    2.6450    0.0000 H   0  0  0  0  0  0  0  0  0  0  0  0
   10.5263    4.2400    0.0000 H   0  0  0  0  0  0  0  0  0  0  0  0
   13.1244    2.5000    0.0000 H   0  0  0  0  0  0  0  0  0  0  0  0
   11.7214    4.9300    0.0000 H   0  0  0  0  0  0  0  0  0  0  0  0
   13.1244    5.7400    0.0000 H   0  0  0  0  0  0  0  0  0  0  0  0
   14.8772    2.4654    0.0000 H   0  0  0  0  0  0  0  0  0  0  0  0
   14.8772    5.7746    0.0000 H   0  0  0  0  0  0  0  0  0  0  0  0
   16.3261    3.2871    0.0000 H   0  0  0  0  0  0  0  0  0  0  0  0
   16.3261    4.9529    0.0000 H   0  0  0  0  0  0  0  0  0  0  0  0
    8.6631    7.7865    0.0000 H   0  0  0  0  0  0  0  0  0  0  0  0
  1 19  1  0  0  0  0
  2 67  1  0  0  0  0
  3 23  2  0  0  0  0
  4  9  1  0  0  0  0
  4 11  1  0  0  0  0
  4 12  1  0  0  0  0
  5 22  1  0  0  0  0
  5 23  1  0  0  0  0
  5 59  1  0  0  0  0
  6  7  1  0  0  0  0
  6  8  1  0  0  0  0
  6  9  1  0  0  0  0
  6 34  1  0  0  0  0
  7  8  1  0  0  0  0
  7 10  1  0  0  0  0
  7 35  1  0  0  0  0
  8 36  1  0  0  0  0
  8 37  1  0  0  0  0
  9 38  1  0  0  0  0
  9 39  1  0  0  0  0
 10 13  2  0  0  0  0
 10 14  1  0  0  0  0
 11 15  1  0  0  0  0
 11 40  1  0  0  0  0
 11 41  1  0  0  0  0
 12 16  1  0  0  0  0
 12 42  1  0  0  0  0
 12 43  1  0  0  0  0
 13 17  1  0  0  0  0
 13 44  1  0  0  0  0
 14 18  2  0  0  0  0
 14 45  1  0  0  0  0
 15 20  1  0  0  0  0
 15 46  1  0  0  0  0
 15 47  1  0  0  0  0
 16 21  1  0  0  0  0
 16 48  1  0  0  0  0
 16 49  1  0  0  0  0
 17 19  2  0  0  0  0
 17 50  1  0  0  0  0
 18 19  1  0  0  0  0
 18 51  1  0  0  0  0
 20 22  1  0  0  0  0
 20 52  1  0  0  0  0
 20 53  1  0  0  0  0
 21 54  1  0  0  0  0
 21 55  1  0  0  0  0
 21 56  1  0  0  0  0
 22 57  1  0  0  0  0
 22 58  1  0  0  0  0
 23 24  1  0  0  0  0
 24 25  2  0  0  0  0
 24 26  1  0  0  0  0
 25 27  1  0  0  0  0
 25 60  1  0  0  0  0
 26 29  2  0  0  0  0
 26 61  1  0  0  0  0
 27 28  1  0  0  0  0
 27 30  2  0  0  0  0
 28 29  1  0  0  0  0
 28 31  2  0  0  0  0
 29 62  1  0  0  0  0
 30 32  1  0  0  0  0
 30 63  1  0  0  0  0
 31 33  1  0  0  0  0
 31 64  1  0  0  0  0
 32 33  2  0  0  0  0
 32 65  1  0  0  0  0
 33 66  1  0  0  0  0
M  END
> <PUBCHEM_COMPOUND_CID>
155533996

> <PUBCHEM_COMPOUND_CANONICALIZED>
1

> <PUBCHEM_CACTVS_COMPLEXITY>
576

> <PUBCHEM_CACTVS_HBOND_ACCEPTOR>
2

> <PUBCHEM_CACTVS_HBOND_DONOR>
2

> <PUBCHEM_CACTVS_ROTATABLE_BOND>
11

> <PUBCHEM_CACTVS_SUBSKEYS>
AAADcfB7IAAGAAAAAAAAAAAAGAAAAAAAAAAwYMAAAAAAAADBVAAAHgIQAAAADQLBmCQyAMPAAACIAiFSEACCAAAkBQAIiIEIBsgIIDKBlxGEIQhglgCIiYcYiMCOxAACAAAQAACIAAQAACAAAAAAAAAAAA==

> <PUBCHEM_IUPAC_OPENEYE_NAME>
N-[4-[[2-(4-chlorophenyl)cyclopropyl]methyl-propyl-amino]butyl]naphthalene-2-carboxamide;hydrochloride

> <PUBCHEM_IUPAC_CAS_NAME>
N-[4-[[2-(4-chlorophenyl)cyclopropyl]methyl-propylamino]butyl]-2-naphthalenecarboxamide;hydrochloride

> <PUBCHEM_IUPAC_NAME_MARKUP>
<I>N</I>-[4-[[2-(4-chlorophenyl)cyclopropyl]methyl-propylamino]butyl]naphthalene-2-carboxamide;hydrochloride

> <PUBCHEM_IUPAC_NAME>
N-[4-[[2-(4-chlorophenyl)cyclopropyl]methyl-propylamino]butyl]naphthalene-2-carboxamide;hydrochloride

> <PUBCHEM_IUPAC_SYSTEMATIC_NAME>
N-[4-[[2-(4-chlorophenyl)cyclopropyl]methyl-propyl-amino]butyl]naphthalene-2-carboxamide;hydrochloride

> <PUBCHEM_IUPAC_TRADITIONAL_NAME>
N-[4-[[2-(4-chlorophenyl)cyclopropyl]methyl-propyl-amino]butyl]-2-naphthamide;hydrochloride

> <PUBCHEM_IUPAC_INCHI>
InChI=1S/C28H33ClN2O.ClH/c1-2-16-31(20-25-19-27(25)22-11-13-26(29)14-12-22)17-6-5-15-30-28(32)24-10-9-21-7-3-4-8-23(21)18-24;/h3-4,7-14,18,25,27H,2,5-6,15-17,19-20H2,1H3,(H,30,32);1H

> <PUBCHEM_IUPAC_INCHIKEY>
FCCHSSMWBPWAGP-UHFFFAOYSA-N

> <PUBCHEM_EXACT_MASS>
484.2048191

> <PUBCHEM_MOLECULAR_FORMULA>
C28H34Cl2N2O

> <PUBCHEM_MOLECULAR_WEIGHT>
485.5

> <PUBCHEM_OPENEYE_CAN_SMILES>
CCCN(CCCCNC(=O)C1=CC2=CC=CC=C2C=C1)CC3CC3C4=CC=C(C=C4)Cl.Cl

> <PUBCHEM_OPENEYE_ISO_SMILES>
CCCN(CCCCNC(=O)C1=CC2=CC=CC=C2C=C1)CC3CC3C4=CC=C(C=C4)Cl.Cl

> <PUBCHEM_CACTVS_TPSA>
32.3

> <PUBCHEM_MONOISOTOPIC_WEIGHT>
484.2048191

> <PUBCHEM_TOTAL_CHARGE>
0

> <PUBCHEM_HEAVY_ATOM_COUNT>
33

> <PUBCHEM_ATOM_DEF_STEREO_COUNT>
0

> <PUBCHEM_ATOM_UDEF_STEREO_COUNT>
2

> <PUBCHEM_BOND_DEF_STEREO_COUNT>
0

> <PUBCHEM_BOND_UDEF_STEREO_COUNT>
0

> <PUBCHEM_ISOTOPIC_ATOM_COUNT>
0

> <PUBCHEM_COMPONENT_COUNT>
2

> <PUBCHEM_CACTVS_TAUTO_COUNT>
-1

> <PUBCHEM_COORDINATE_TYPE>
1
5
255

> <PUBCHEM_BONDANNOTATIONS>
10  13  8
10  14  8
13  17  8
14  18  8
17  19  8
18  19  8
24  25  8
24  26  8
25  27  8
26  29  8
27  28  8
27  30  8
28  29  8
28  31  8
30  32  8
31  33  8
32  33  8
6  9  3
7  10  3

$$$$
