164626197
  -OEChem-09292322432D

 64 67  0     1  0  0  0  0  0999 V2000
    8.5622   -3.9330    0.0000 O   0  0  0  0  0  0  0  0  0  0  0  0
    5.4641    4.4330    0.0000 O   0  0  0  0  0  0  0  0  0  0  0  0
    8.9282   -0.5670    0.0000 N   0  0  0  0  0  0  0  0  0  0  0  0
    4.5981    2.9330    0.0000 N   0  0  0  0  0  0  0  0  0  0  0  0
    9.7942   -2.0670    0.0000 C   0  0  3  0  0  0  0  0  0  0  0  0
   10.2942   -2.9330    0.0000 C   0  0  3  0  0  0  0  0  0  0  0  0
   10.7942   -2.0670    0.0000 C   0  0  0  0  0  0  0  0  0  0  0  0
    8.9282   -1.5670    0.0000 C   0  0  0  0  0  0  0  0  0  0  0  0
   10.2942   -3.9330    0.0000 C   0  0  0  0  0  0  0  0  0  0  0  0
    7.1962    1.4330    0.0000 C   0  0  0  0  0  0  0  0  0  0  0  0
    8.0622    0.9330    0.0000 C   0  0  0  0  0  0  0  0  0  0  0  0
    6.3301    0.9330    0.0000 C   0  0  0  0  0  0  0  0  0  0  0  0
    7.1962    2.4330    0.0000 C   0  0  0  0  0  0  0  0  0  0  0  0
    8.0622   -0.0670    0.0000 C   0  0  0  0  0  0  0  0  0  0  0  0
    5.4641    2.4330    0.0000 C   0  0  0  0  0  0  0  0  0  0  0  0
    5.4641    1.4330    0.0000 C   0  0  0  0  0  0  0  0  0  0  0  0
    6.3301    2.9330    0.0000 C   0  0  0  0  0  0  0  0  0  0  0  0
    9.4282   -4.4330    0.0000 C   0  0  0  0  0  0  0  0  0  0  0  0
   11.1603   -4.4330    0.0000 C   0  0  0  0  0  0  0  0  0  0  0  0
    9.4282   -5.4330    0.0000 C   0  0  0  0  0  0  0  0  0  0  0  0
   11.1603   -5.4330    0.0000 C   0  0  0  0  0  0  0  0  0  0  0  0
   10.2942   -5.9330    0.0000 C   0  0  0  0  0  0  0  0  0  0  0  0
    4.5981    3.9330    0.0000 C   0  0  0  0  0  0  0  0  0  0  0  0
    7.6962   -4.4330    0.0000 C   0  0  0  0  0  0  0  0  0  0  0  0
    3.7320    4.4330    0.0000 C   0  0  0  0  0  0  0  0  0  0  0  0
    2.8660    3.9330    0.0000 C   0  0  0  0  0  0  0  0  0  0  0  0
    3.7320    5.4330    0.0000 C   0  0  0  0  0  0  0  0  0  0  0  0
    2.0000    4.4330    0.0000 C   0  0  0  0  0  0  0  0  0  0  0  0
    2.8660    5.9330    0.0000 C   0  0  0  0  0  0  0  0  0  0  0  0
    2.0000    5.4330    0.0000 C   0  0  0  0  0  0  0  0  0  0  0  0
    9.3558   -2.5054    0.0000 H   0  0  0  0  0  0  0  0  0  0  0  0
   10.8931   -3.0935    0.0000 H   0  0  0  0  0  0  0  0  0  0  0  0
   11.3768   -2.2790    0.0000 H   0  0  0  0  0  0  0  0  0  0  0  0
   10.9019   -1.4564    0.0000 H   0  0  0  0  0  0  0  0  0  0  0  0
    8.3176   -1.4593    0.0000 H   0  0  0  0  0  0  0  0  0  0  0  0
    8.7162   -2.1496    0.0000 H   0  0  0  0  0  0  0  0  0  0  0  0
    7.7331    1.7430    0.0000 H   0  0  0  0  0  0  0  0  0  0  0  0
    9.4651   -0.2570    0.0000 H   0  0  0  0  0  0  0  0  0  0  0  0
    8.6728    0.8254    0.0000 H   0  0  0  0  0  0  0  0  0  0  0  0
    8.2742    1.5156    0.0000 H   0  0  0  0  0  0  0  0  0  0  0  0
    5.9316    0.4581    0.0000 H   0  0  0  0  0  0  0  0  0  0  0  0
    6.7287    0.4581    0.0000 H   0  0  0  0  0  0  0  0  0  0  0  0
    7.8067    2.3253    0.0000 H   0  0  0  0  0  0  0  0  0  0  0  0
    7.4082    3.0156    0.0000 H   0  0  0  0  0  0  0  0  0  0  0  0
    7.4516    0.0407    0.0000 H   0  0  0  0  0  0  0  0  0  0  0  0
    7.8501   -0.6496    0.0000 H   0  0  0  0  0  0  0  0  0  0  0  0
    5.4641    3.0530    0.0000 H   0  0  0  0  0  0  0  0  0  0  0  0
    4.8535    1.5407    0.0000 H   0  0  0  0  0  0  0  0  0  0  0  0
    5.2520    0.8504    0.0000 H   0  0  0  0  0  0  0  0  0  0  0  0
    6.7287    3.4080    0.0000 H   0  0  0  0  0  0  0  0  0  0  0  0
    5.9316    3.4080    0.0000 H   0  0  0  0  0  0  0  0  0  0  0  0
   11.6972   -4.1230    0.0000 H   0  0  0  0  0  0  0  0  0  0  0  0
    4.0611    2.6230    0.0000 H   0  0  0  0  0  0  0  0  0  0  0  0
    8.8913   -5.7430    0.0000 H   0  0  0  0  0  0  0  0  0  0  0  0
   11.6972   -5.7430    0.0000 H   0  0  0  0  0  0  0  0  0  0  0  0
   10.2942   -6.5530    0.0000 H   0  0  0  0  0  0  0  0  0  0  0  0
    7.3862   -3.8961    0.0000 H   0  0  0  0  0  0  0  0  0  0  0  0
    7.1592   -4.7430    0.0000 H   0  0  0  0  0  0  0  0  0  0  0  0
    8.0062   -4.9700    0.0000 H   0  0  0  0  0  0  0  0  0  0  0  0
    2.8660    3.3130    0.0000 H   0  0  0  0  0  0  0  0  0  0  0  0
    4.2690    5.7430    0.0000 H   0  0  0  0  0  0  0  0  0  0  0  0
    1.4631    4.1230    0.0000 H   0  0  0  0  0  0  0  0  0  0  0  0
    2.8660    6.5530    0.0000 H   0  0  0  0  0  0  0  0  0  0  0  0
    1.4631    5.7430    0.0000 H   0  0  0  0  0  0  0  0  0  0  0  0
  1 18  1  0  0  0  0
  1 24  1  0  0  0  0
  2 23  2  0  0  0  0
  3  8  1  0  0  0  0
  3 14  1  0  0  0  0
  3 38  1  0  0  0  0
  4 15  1  0  0  0  0
  4 23  1  0  0  0  0
  4 53  1  0  0  0  0
  5  6  1  0  0  0  0
  5  7  1  0  0  0  0
  5  8  1  0  0  0  0
  5 31  1  0  0  0  0
  6  7  1  0  0  0  0
  6  9  1  0  0  0  0
  6 32  1  0  0  0  0
  7 33  1  0  0  0  0
  7 34  1  0  0  0  0
  8 35  1  0  0  0  0
  8 36  1  0  0  0  0
  9 18  1  0  0  0  0
  9 19  2  0  0  0  0
 10 11  1  0  0  0  0
 10 12  1  0  0  0  0
 10 13  1  0  0  0  0
 10 37  1  0  0  0  0
 11 14  1  0  0  0  0
 11 39  1  0  0  0  0
 11 40  1  0  0  0  0
 12 16  1  0  0  0  0
 12 41  1  0  0  0  0
 12 42  1  0  0  0  0
 13 17  1  0  0  0  0
 13 43  1  0  0  0  0
 13 44  1  0  0  0  0
 14 45  1  0  0  0  0
 14 46  1  0  0  0  0
 15 16  1  0  0  0  0
 15 17  1  0  0  0  0
 15 47  1  0  0  0  0
 16 48  1  0  0  0  0
 16 49  1  0  0  0  0
 17 50  1  0  0  0  0
 17 51  1  0  0  0  0
 18 20  2  0  0  0  0
 19 21  1  0  0  0  0
 19 52  1  0  0  0  0
 20 22  1  0  0  0  0
 20 54  1  0  0  0  0
 21 22  2  0  0  0  0
 21 55  1  0  0  0  0
 22 56  1  0  0  0  0
 23 25  1  0  0  0  0
 24 57  1  0  0  0  0
 24 58  1  0  0  0  0
 24 59  1  0  0  0  0
 25 26  2  0  0  0  0
 25 27  1  0  0  0  0
 26 28  1  0  0  0  0
 26 60  1  0  0  0  0
 27 29  2  0  0  0  0
 27 61  1  0  0  0  0
 28 30  2  0  0  0  0
 28 62  1  0  0  0  0
 29 30  1  0  0  0  0
 29 63  1  0  0  0  0
 30 64  1  0  0  0  0
M  END
> <PUBCHEM_COMPOUND_CID>
164626197

> <PUBCHEM_COMPOUND_CANONICALIZED>
1

> <PUBCHEM_CACTVS_COMPLEXITY>
525

> <PUBCHEM_CACTVS_HBOND_ACCEPTOR>
3

> <PUBCHEM_CACTVS_HBOND_DONOR>
2

> <PUBCHEM_CACTVS_ROTATABLE_BOND>
9

> <PUBCHEM_CACTVS_SUBSKEYS>
AAADcfB7MAAAAAAAAAAAAAAAGAAAAAAAAAAwYMAAAAAAAAABQAAAHgAQAAAADSzBmAYyBoLABACIAiFSEACCCAAkIAAIiIEODMgMJjKEtRuEMShk1hGIqYeY2OKOgAAAAAAIAAAQAAAAABAAAAAAAAAAAA==

> <PUBCHEM_IUPAC_OPENEYE_NAME>
N-[4-[2-[[2-(2-methoxyphenyl)cyclopropyl]methylamino]ethyl]cyclohexyl]benzamide

> <PUBCHEM_IUPAC_CAS_NAME>
N-[4-[2-[[2-(2-methoxyphenyl)cyclopropyl]methylamino]ethyl]cyclohexyl]benzamide

> <PUBCHEM_IUPAC_NAME_MARKUP>
<I>N</I>-[4-[2-[[2-(2-methoxyphenyl)cyclopropyl]methylamino]ethyl]cyclohexyl]benzamide

> <PUBCHEM_IUPAC_NAME>
N-[4-[2-[[2-(2-methoxyphenyl)cyclopropyl]methylamino]ethyl]cyclohexyl]benzamide

> <PUBCHEM_IUPAC_SYSTEMATIC_NAME>
N-[4-[2-[[2-(2-methoxyphenyl)cyclopropyl]methylamino]ethyl]cyclohexyl]benzamide

> <PUBCHEM_IUPAC_TRADITIONAL_NAME>
N-[4-[2-[[2-(2-methoxyphenyl)cyclopropyl]methylamino]ethyl]cyclohexyl]benzamide

> <PUBCHEM_IUPAC_INCHI>
InChI=1S/C26H34N2O2/c1-30-25-10-6-5-9-23(25)24-17-21(24)18-27-16-15-19-11-13-22(14-12-19)28-26(29)20-7-3-2-4-8-20/h2-10,19,21-22,24,27H,11-18H2,1H3,(H,28,29)

> <PUBCHEM_IUPAC_INCHIKEY>
WWKNTMORPLZKRM-UHFFFAOYSA-N

> <PUBCHEM_XLOGP3_AA>
4.8

> <PUBCHEM_EXACT_MASS>
406.262028332

> <PUBCHEM_MOLECULAR_FORMULA>
C26H34N2O2

> <PUBCHEM_MOLECULAR_WEIGHT>
406.6

> <PUBCHEM_OPENEYE_CAN_SMILES>
COC1=CC=CC=C1C2CC2CNCCC3CCC(CC3)NC(=O)C4=CC=CC=C4

> <PUBCHEM_OPENEYE_ISO_SMILES>
COC1=CC=CC=C1C2CC2CNCCC3CCC(CC3)NC(=O)C4=CC=CC=C4

> <PUBCHEM_CACTVS_TPSA>
50.4

> <PUBCHEM_MONOISOTOPIC_WEIGHT>
406.262028332

> <PUBCHEM_TOTAL_CHARGE>
0

> <PUBCHEM_HEAVY_ATOM_COUNT>
30

> <PUBCHEM_ATOM_DEF_STEREO_COUNT>
0

> <PUBCHEM_ATOM_UDEF_STEREO_COUNT>
2

> <PUBCHEM_BOND_DEF_STEREO_COUNT>
0

> <PUBCHEM_BOND_UDEF_STEREO_COUNT>
0

> <PUBCHEM_ISOTOPIC_ATOM_COUNT>
0

> <PUBCHEM_COMPONENT_COUNT>
1

> <PUBCHEM_CACTVS_TAUTO_COUNT>
-1

> <PUBCHEM_COORDINATE_TYPE>
1
5
255

> <PUBCHEM_BONDANNOTATIONS>
18  20  8
19  21  8
20  22  8
21  22  8
25  26  8
25  27  8
26  28  8
27  29  8
28  30  8
29  30  8
5  8  3
6  9  3
9  18  8
9  19  8

$$$$
