9820671
  -OEChem-09292322082D

 54 56  0     1  0  0  0  0  0999 V2000
    7.5013    0.5416    0.0000 O   0  0  0  0  0  0  0  0  0  0  0  0
    6.7870    3.9313    0.0000 O   0  0  0  0  0  0  0  0  0  0  0  0
    4.5981   -1.1756    0.0000 N   0  0  0  0  0  0  0  0  0  0  0  0
    3.7320   -2.6756    0.0000 N   0  0  0  0  0  0  0  0  0  0  0  0
    5.5443   -1.4803    0.0000 N   0  0  0  0  0  0  0  0  0  0  0  0
    3.7320    0.3244    0.0000 N   0  0  0  0  0  0  0  0  0  0  0  0
    2.8660   -1.1756    0.0000 N   0  0  0  0  0  0  0  0  0  0  0  0
    2.8660   -3.1756    0.0000 C   0  0  1  0  0  0  0  0  0  0  0  0
    5.5443    0.1292    0.0000 C   0  0  0  0  0  0  0  0  0  0  0  0
    4.5981   -0.1756    0.0000 C   0  0  0  0  0  0  0  0  0  0  0  0
    5.8550    1.0797    0.0000 C   0  0  0  0  0  0  0  0  0  0  0  0
    3.7320   -1.6756    0.0000 C   0  0  0  0  0  0  0  0  0  0  0  0
    6.1279   -0.6756    0.0000 C   0  0  0  0  0  0  0  0  0  0  0  0
    2.8660   -4.1756    0.0000 C   0  0  0  0  0  0  0  0  0  0  0  0
    5.1871    1.8240    0.0000 C   0  0  0  0  0  0  0  0  0  0  0  0
    2.0000   -2.6756    0.0000 C   0  0  0  0  0  0  0  0  0  0  0  0
    6.8335    1.2859    0.0000 C   0  0  0  0  0  0  0  0  0  0  0  0
    7.1279   -0.6756    0.0000 C   0  0  0  0  0  0  0  0  0  0  0  0
    2.8660   -0.1756    0.0000 C   0  0  0  0  0  0  0  0  0  0  0  0
    2.0000   -4.6756    0.0000 C   0  0  0  0  0  0  0  0  0  0  0  0
    5.4978    2.7745    0.0000 C   0  0  0  0  0  0  0  0  0  0  0  0
    7.1441    2.2364    0.0000 C   0  0  0  0  0  0  0  0  0  0  0  0
    6.4763    2.9807    0.0000 C   0  0  0  0  0  0  0  0  0  0  0  0
    4.2086    1.6178    0.0000 C   0  0  0  0  0  0  0  0  0  0  0  0
    2.0000    0.3244    0.0000 C   0  0  0  0  0  0  0  0  0  0  0  0
    8.4798    0.7478    0.0000 C   0  0  0  0  0  0  0  0  0  0  0  0
    6.1191    4.6756    0.0000 C   0  0  0  0  0  0  0  0  0  0  0  0
    2.8660   -2.5556    0.0000 H   0  0  0  0  0  0  0  0  0  0  0  0
    4.2690   -2.9856    0.0000 H   0  0  0  0  0  0  0  0  0  0  0  0
    3.0781   -4.7582    0.0000 H   0  0  0  0  0  0  0  0  0  0  0  0
    3.4766   -4.0679    0.0000 H   0  0  0  0  0  0  0  0  0  0  0  0
    2.3100   -2.1386    0.0000 H   0  0  0  0  0  0  0  0  0  0  0  0
    1.4631   -2.3656    0.0000 H   0  0  0  0  0  0  0  0  0  0  0  0
    1.6900   -3.2125    0.0000 H   0  0  0  0  0  0  0  0  0  0  0  0
    7.1279   -1.2956    0.0000 H   0  0  0  0  0  0  0  0  0  0  0  0
    7.7479   -0.6756    0.0000 H   0  0  0  0  0  0  0  0  0  0  0  0
    7.1279   -0.0556    0.0000 H   0  0  0  0  0  0  0  0  0  0  0  0
    1.6900   -4.1386    0.0000 H   0  0  0  0  0  0  0  0  0  0  0  0
    1.4631   -4.9856    0.0000 H   0  0  0  0  0  0  0  0  0  0  0  0
    2.3100   -5.2125    0.0000 H   0  0  0  0  0  0  0  0  0  0  0  0
    5.0837    3.2360    0.0000 H   0  0  0  0  0  0  0  0  0  0  0  0
    7.7508    2.3643    0.0000 H   0  0  0  0  0  0  0  0  0  0  0  0
    4.0808    2.2244    0.0000 H   0  0  0  0  0  0  0  0  0  0  0  0
    3.6019    1.4899    0.0000 H   0  0  0  0  0  0  0  0  0  0  0  0
    4.3365    1.0111    0.0000 H   0  0  0  0  0  0  0  0  0  0  0  0
    2.3100    0.8614    0.0000 H   0  0  0  0  0  0  0  0  0  0  0  0
    1.4631    0.6344    0.0000 H   0  0  0  0  0  0  0  0  0  0  0  0
    1.6900   -0.2125    0.0000 H   0  0  0  0  0  0  0  0  0  0  0  0
    8.6077    0.1412    0.0000 H   0  0  0  0  0  0  0  0  0  0  0  0
    9.0865    0.8757    0.0000 H   0  0  0  0  0  0  0  0  0  0  0  0
    8.3520    1.3545    0.0000 H   0  0  0  0  0  0  0  0  0  0  0  0
    6.5806    5.0896    0.0000 H   0  0  0  0  0  0  0  0  0  0  0  0
    5.7050    5.1370    0.0000 H   0  0  0  0  0  0  0  0  0  0  0  0
    5.6576    4.2615    0.0000 H   0  0  0  0  0  0  0  0  0  0  0  0
  1 17  1  0  0  0  0
  1 26  1  0  0  0  0
  2 23  1  0  0  0  0
  2 27  1  0  0  0  0
  3  5  1  0  0  0  0
  3 10  1  0  0  0  0
  3 12  1  0  0  0  0
  8  4  1  1  0  0  0
  4 12  1  0  0  0  0
  4 29  1  0  0  0  0
  5 13  2  0  0  0  0
  6 10  1  0  0  0  0
  6 19  2  0  0  0  0
  7 12  2  0  0  0  0
  7 19  1  0  0  0  0
  8 14  1  0  0  0  0
  8 16  1  0  0  0  0
  8 28  1  0  0  0  0
  9 10  2  0  0  0  0
  9 11  1  0  0  0  0
  9 13  1  0  0  0  0
 11 15  1  0  0  0  0
 11 17  2  0  0  0  0
 13 18  1  0  0  0  0
 14 20  1  0  0  0  0
 14 30  1  0  0  0  0
 14 31  1  0  0  0  0
 15 21  2  0  0  0  0
 15 24  1  0  0  0  0
 16 32  1  0  0  0  0
 16 33  1  0  0  0  0
 16 34  1  0  0  0  0
 17 22  1  0  0  0  0
 18 35  1  0  0  0  0
 18 36  1  0  0  0  0
 18 37  1  0  0  0  0
 19 25  1  0  0  0  0
 20 38  1  0  0  0  0
 20 39  1  0  0  0  0
 20 40  1  0  0  0  0
 21 23  1  0  0  0  0
 21 41  1  0  0  0  0
 22 23  2  0  0  0  0
 22 42  1  0  0  0  0
 24 43  1  0  0  0  0
 24 44  1  0  0  0  0
 24 45  1  0  0  0  0
 25 46  1  0  0  0  0
 25 47  1  0  0  0  0
 25 48  1  0  0  0  0
 26 49  1  0  0  0  0
 26 50  1  0  0  0  0
 26 51  1  0  0  0  0
 27 52  1  0  0  0  0
 27 53  1  0  0  0  0
 27 54  1  0  0  0  0
M  END
> <PUBCHEM_COMPOUND_CID>
9820671

> <PUBCHEM_COMPOUND_CANONICALIZED>
1

> <PUBCHEM_CACTVS_COMPLEXITY>
481

> <PUBCHEM_CACTVS_HBOND_ACCEPTOR>
6

> <PUBCHEM_CACTVS_HBOND_DONOR>
1

> <PUBCHEM_CACTVS_ROTATABLE_BOND>
6

> <PUBCHEM_CACTVS_SUBSKEYS>
AAADceB7sAAAAAAAAAAAAAAAAAAAAWAAAAA8QAAAAAAAAFgB8AAAHgAYAAAADCzBnwYztp7IFACiAyZiZACSjCshIKAVmKA+TJiMLyLE+duEtCh92BfI6Cew4PwOoAABCAAYAABAAAIQADAAAAAAAAAAAA==

> <PUBCHEM_IUPAC_OPENEYE_NAME>
8-(2,4-dimethoxy-6-methyl-phenyl)-2,7-dimethyl-N-[(1R)-1-methylpropyl]pyrazolo[1,5-a][1,3,5]triazin-4-amine

> <PUBCHEM_IUPAC_CAS_NAME>
N-[(2R)-butan-2-yl]-8-(2,4-dimethoxy-6-methylphenyl)-2,7-dimethyl-4-pyrazolo[1,5-a][1,3,5]triazinamine

> <PUBCHEM_IUPAC_NAME_MARKUP>
<I>N</I>-[(2<I>R</I>)-butan-2-yl]-8-(2,4-dimethoxy-6-methylphenyl)-2,7-dimethylpyrazolo[1,5-a][1,3,5]triazin-4-amine

> <PUBCHEM_IUPAC_NAME>
N-[(2R)-butan-2-yl]-8-(2,4-dimethoxy-6-methylphenyl)-2,7-dimethylpyrazolo[1,5-a][1,3,5]triazin-4-amine

> <PUBCHEM_IUPAC_SYSTEMATIC_NAME>
N-[(2R)-butan-2-yl]-8-(2,4-dimethoxy-6-methyl-phenyl)-2,7-dimethyl-pyrazolo[1,5-a][1,3,5]triazin-4-amine

> <PUBCHEM_IUPAC_TRADITIONAL_NAME>
[8-(2,4-dimethoxy-6-methyl-phenyl)-2,7-dimethyl-pyrazolo[1,5-a][1,3,5]triazin-4-yl]-[(1R)-1-methylpropyl]amine

> <PUBCHEM_IUPAC_INCHI>
InChI=1S/C20H27N5O2/c1-8-12(3)21-20-23-14(5)22-19-18(13(4)24-25(19)20)17-11(2)9-15(26-6)10-16(17)27-7/h9-10,12H,8H2,1-7H3,(H,21,22,23)/t12-/m1/s1

> <PUBCHEM_IUPAC_INCHIKEY>
OGTPHDYRZSEDNM-GFCCVEGCSA-N

> <PUBCHEM_XLOGP3_AA>
4.5

> <PUBCHEM_EXACT_MASS>
369.21647512

> <PUBCHEM_MOLECULAR_FORMULA>
C20H27N5O2

> <PUBCHEM_MOLECULAR_WEIGHT>
369.5

> <PUBCHEM_OPENEYE_CAN_SMILES>
CCC(C)NC1=NC(=NC2=C(C(=NN21)C)C3=C(C=C(C=C3C)OC)OC)C

> <PUBCHEM_OPENEYE_ISO_SMILES>
CC[C@@H](C)NC1=NC(=NC2=C(C(=NN21)C)C3=C(C=C(C=C3C)OC)OC)C

> <PUBCHEM_CACTVS_TPSA>
73.6

> <PUBCHEM_MONOISOTOPIC_WEIGHT>
369.21647512

> <PUBCHEM_TOTAL_CHARGE>
0

> <PUBCHEM_HEAVY_ATOM_COUNT>
27

> <PUBCHEM_ATOM_DEF_STEREO_COUNT>
1

> <PUBCHEM_ATOM_UDEF_STEREO_COUNT>
0

> <PUBCHEM_BOND_DEF_STEREO_COUNT>
0

> <PUBCHEM_BOND_UDEF_STEREO_COUNT>
0

> <PUBCHEM_ISOTOPIC_ATOM_COUNT>
0

> <PUBCHEM_COMPONENT_COUNT>
1

> <PUBCHEM_CACTVS_TAUTO_COUNT>
-1

> <PUBCHEM_COORDINATE_TYPE>
1
5
255

> <PUBCHEM_BONDANNOTATIONS>
11  15  8
11  17  8
15  21  8
17  22  8
21  23  8
22  23  8
3  10  8
3  12  8
3  5  8
8  4  5
5  13  8
6  10  8
6  19  8
7  12  8
7  19  8
9  10  8
9  13  8

$$$$
