164609529
  -OEChem-09292322432D

 53 56  0     1  0  0  0  0  0999 V2000
    2.0000    2.1910    0.0000 Cl  0  0  0  0  0  0  0  0  0  0  0  0
    5.8550    4.9462    0.0000 O   0  0  0  0  0  0  0  0  0  0  0  0
    7.5369    0.0264    0.0000 N   0  0  0  0  0  0  0  0  0  0  0  0
    7.3278   -1.9627    0.0000 N   0  0  0  0  0  0  0  0  0  0  0  0
    8.0323   -3.5450    0.0000 N   0  0  0  0  0  0  0  0  0  0  0  0
    6.1279    3.1910    0.0000 C   0  0  3  0  0  0  0  0  0  0  0  0
    6.9369    2.6032    0.0000 C   0  0  0  0  0  0  0  0  0  0  0  0
    5.5443    2.3862    0.0000 C   0  0  0  0  0  0  0  0  0  0  0  0
    6.8324    1.6087    0.0000 C   0  0  0  0  0  0  0  0  0  0  0  0
    5.5443    3.9957    0.0000 C   0  0  0  0  0  0  0  0  0  0  0  0
    7.6414    1.0209    0.0000 C   0  0  0  0  0  0  0  0  0  0  0  0
    4.5981    2.6910    0.0000 C   0  0  0  0  0  0  0  0  0  0  0  0
    6.9369    3.7788    0.0000 C   0  0  0  0  0  0  0  0  0  0  0  0
    4.5981    3.6910    0.0000 C   0  0  0  0  0  0  0  0  0  0  0  0
    8.3459   -0.5614    0.0000 C   0  0  0  0  0  0  0  0  0  0  0  0
    6.6233   -0.3804    0.0000 C   0  0  0  0  0  0  0  0  0  0  0  0
    8.2414   -1.5559    0.0000 C   0  0  0  0  0  0  0  0  0  0  0  0
    6.5188   -1.3749    0.0000 C   0  0  0  0  0  0  0  0  0  0  0  0
    3.7320    2.1910    0.0000 C   0  0  0  0  0  0  0  0  0  0  0  0
    3.7320    4.1910    0.0000 C   0  0  0  0  0  0  0  0  0  0  0  0
    2.8660    2.6910    0.0000 C   0  0  0  0  0  0  0  0  0  0  0  0
    7.2233   -2.9572    0.0000 C   0  0  0  0  0  0  0  0  0  0  0  0
    2.8660    3.6910    0.0000 C   0  0  0  0  0  0  0  0  0  0  0  0
    6.3098   -3.3639    0.0000 C   0  0  0  0  0  0  0  0  0  0  0  0
    6.2052   -4.3585    0.0000 C   0  0  0  0  0  0  0  0  0  0  0  0
    7.9278   -4.5395    0.0000 C   0  0  0  0  0  0  0  0  0  0  0  0
    7.0142   -4.9462    0.0000 C   0  0  0  0  0  0  0  0  0  0  0  0
    7.5329    2.4323    0.0000 H   0  0  0  0  0  0  0  0  0  0  0  0
    7.2087    3.1604    0.0000 H   0  0  0  0  0  0  0  0  0  0  0  0
    5.2933    1.8194    0.0000 H   0  0  0  0  0  0  0  0  0  0  0  0
    6.0817    2.0770    0.0000 H   0  0  0  0  0  0  0  0  0  0  0  0
    6.2364    1.7796    0.0000 H   0  0  0  0  0  0  0  0  0  0  0  0
    6.5606    1.0514    0.0000 H   0  0  0  0  0  0  0  0  0  0  0  0
    8.2374    0.8500    0.0000 H   0  0  0  0  0  0  0  0  0  0  0  0
    7.9132    1.5782    0.0000 H   0  0  0  0  0  0  0  0  0  0  0  0
    7.3014    3.2772    0.0000 H   0  0  0  0  0  0  0  0  0  0  0  0
    7.4385    4.1432    0.0000 H   0  0  0  0  0  0  0  0  0  0  0  0
    6.5725    4.2804    0.0000 H   0  0  0  0  0  0  0  0  0  0  0  0
    8.9419   -0.7323    0.0000 H   0  0  0  0  0  0  0  0  0  0  0  0
    8.6177   -0.0042    0.0000 H   0  0  0  0  0  0  0  0  0  0  0  0
    6.4734    0.2212    0.0000 H   0  0  0  0  0  0  0  0  0  0  0  0
    6.0048   -0.4236    0.0000 H   0  0  0  0  0  0  0  0  0  0  0  0
    8.3914   -2.1575    0.0000 H   0  0  0  0  0  0  0  0  0  0  0  0
    8.8599   -1.5127    0.0000 H   0  0  0  0  0  0  0  0  0  0  0  0
    5.9228   -1.2040    0.0000 H   0  0  0  0  0  0  0  0  0  0  0  0
    6.2470   -1.9321    0.0000 H   0  0  0  0  0  0  0  0  0  0  0  0
    3.7320    1.5710    0.0000 H   0  0  0  0  0  0  0  0  0  0  0  0
    3.7320    4.8110    0.0000 H   0  0  0  0  0  0  0  0  0  0  0  0
    2.3291    4.0010    0.0000 H   0  0  0  0  0  0  0  0  0  0  0  0
    5.8082   -2.9995    0.0000 H   0  0  0  0  0  0  0  0  0  0  0  0
    5.6388   -4.6106    0.0000 H   0  0  0  0  0  0  0  0  0  0  0  0
    8.4294   -4.9039    0.0000 H   0  0  0  0  0  0  0  0  0  0  0  0
    6.9494   -5.5628    0.0000 H   0  0  0  0  0  0  0  0  0  0  0  0
  1 21  1  0  0  0  0
  2 10  2  0  0  0  0
  3 11  1  0  0  0  0
  3 15  1  0  0  0  0
  3 16  1  0  0  0  0
  4 17  1  0  0  0  0
  4 18  1  0  0  0  0
  4 22  1  0  0  0  0
  5 22  1  0  0  0  0
  5 26  2  0  0  0  0
  6  7  1  0  0  0  0
  6  8  1  0  0  0  0
  6 10  1  0  0  0  0
  6 13  1  0  0  0  0
  7  9  1  0  0  0  0
  7 28  1  0  0  0  0
  7 29  1  0  0  0  0
  8 12  1  0  0  0  0
  8 30  1  0  0  0  0
  8 31  1  0  0  0  0
  9 11  1  0  0  0  0
  9 32  1  0  0  0  0
  9 33  1  0  0  0  0
 10 14  1  0  0  0  0
 11 34  1  0  0  0  0
 11 35  1  0  0  0  0
 12 14  2  0  0  0  0
 12 19  1  0  0  0  0
 13 36  1  0  0  0  0
 13 37  1  0  0  0  0
 13 38  1  0  0  0  0
 14 20  1  0  0  0  0
 15 17  1  0  0  0  0
 15 39  1  0  0  0  0
 15 40  1  0  0  0  0
 16 18  1  0  0  0  0
 16 41  1  0  0  0  0
 16 42  1  0  0  0  0
 17 43  1  0  0  0  0
 17 44  1  0  0  0  0
 18 45  1  0  0  0  0
 18 46  1  0  0  0  0
 19 21  2  0  0  0  0
 19 47  1  0  0  0  0
 20 23  2  0  0  0  0
 20 48  1  0  0  0  0
 21 23  1  0  0  0  0
 22 24  2  0  0  0  0
 23 49  1  0  0  0  0
 24 25  1  0  0  0  0
 24 50  1  0  0  0  0
 25 27  2  0  0  0  0
 25 51  1  0  0  0  0
 26 27  1  0  0  0  0
 26 52  1  0  0  0  0
 27 53  1  0  0  0  0
M  END
> <PUBCHEM_COMPOUND_CID>
164609529

> <PUBCHEM_COMPOUND_CANONICALIZED>
1

> <PUBCHEM_CACTVS_COMPLEXITY>
522

> <PUBCHEM_CACTVS_HBOND_ACCEPTOR>
4

> <PUBCHEM_CACTVS_HBOND_DONOR>
0

> <PUBCHEM_CACTVS_ROTATABLE_BOND>
5

> <PUBCHEM_CACTVS_SUBSKEYS>
AAADceB7IAAEAAAAAAAAAAAAAAAAAYAAAAA8WIAAAAAAAGABwAAAHgIAAAAADgbBmiQ/sJMIEACoArJ3ZACCgCk1ByAJ2CE4ZtiIYPLBn5GUIQhogALIyacYicCPhAAAIAAQAAAIAABAACAAAQAACAAAAA==

> <PUBCHEM_IUPAC_OPENEYE_NAME>
5-chloro-2-methyl-2-[3-[4-(2-pyridyl)piperazin-1-yl]propyl]indan-1-one

> <PUBCHEM_IUPAC_CAS_NAME>
5-chloro-2-methyl-2-[3-[4-(2-pyridinyl)-1-piperazinyl]propyl]-3H-inden-1-one

> <PUBCHEM_IUPAC_NAME_MARKUP>
5-chloro-2-methyl-2-[3-(4-pyridin-2-ylpiperazin-1-yl)propyl]-3<I>H</I>-inden-1-one

> <PUBCHEM_IUPAC_NAME>
5-chloro-2-methyl-2-[3-(4-pyridin-2-ylpiperazin-1-yl)propyl]-3H-inden-1-one

> <PUBCHEM_IUPAC_SYSTEMATIC_NAME>
5-chloranyl-2-methyl-2-[3-(4-pyridin-2-ylpiperazin-1-yl)propyl]-3H-inden-1-one

> <PUBCHEM_IUPAC_TRADITIONAL_NAME>
5-chloro-2-methyl-2-[3-[4-(2-pyridyl)piperazino]propyl]indan-1-one

> <PUBCHEM_IUPAC_INCHI>
InChI=1S/C22H26ClN3O/c1-22(16-17-15-18(23)6-7-19(17)21(22)27)8-4-10-25-11-13-26(14-12-25)20-5-2-3-9-24-20/h2-3,5-7,9,15H,4,8,10-14,16H2,1H3

> <PUBCHEM_IUPAC_INCHIKEY>
AKXPLUFJRRUGNE-UHFFFAOYSA-N

> <PUBCHEM_XLOGP3_AA>
4.3

> <PUBCHEM_EXACT_MASS>
383.1764402

> <PUBCHEM_MOLECULAR_FORMULA>
C22H26ClN3O

> <PUBCHEM_MOLECULAR_WEIGHT>
383.9

> <PUBCHEM_OPENEYE_CAN_SMILES>
CC1(CC2=C(C1=O)C=CC(=C2)Cl)CCCN3CCN(CC3)C4=CC=CC=N4

> <PUBCHEM_OPENEYE_ISO_SMILES>
CC1(CC2=C(C1=O)C=CC(=C2)Cl)CCCN3CCN(CC3)C4=CC=CC=N4

> <PUBCHEM_CACTVS_TPSA>
36.4

> <PUBCHEM_MONOISOTOPIC_WEIGHT>
383.1764402

> <PUBCHEM_TOTAL_CHARGE>
0

> <PUBCHEM_HEAVY_ATOM_COUNT>
27

> <PUBCHEM_ATOM_DEF_STEREO_COUNT>
0

> <PUBCHEM_ATOM_UDEF_STEREO_COUNT>
1

> <PUBCHEM_BOND_DEF_STEREO_COUNT>
0

> <PUBCHEM_BOND_UDEF_STEREO_COUNT>
0

> <PUBCHEM_ISOTOPIC_ATOM_COUNT>
0

> <PUBCHEM_COMPONENT_COUNT>
1

> <PUBCHEM_CACTVS_TAUTO_COUNT>
-1

> <PUBCHEM_COORDINATE_TYPE>
1
5
255

> <PUBCHEM_BONDANNOTATIONS>
12  14  8
12  19  8
14  20  8
19  21  8
20  23  8
21  23  8
22  24  8
24  25  8
25  27  8
26  27  8
5  22  8
5  26  8
6  13  3

$$$$
