164092572
  -OEChem-09292322442D

 51 53  0     1  0  0  0  0  0999 V2000
    2.0000   -4.6270    0.0000 F   0  0  0  0  0  0  0  0  0  0  0  0
    5.5443   -4.4317    0.0000 O   0  0  0  0  0  0  0  0  0  0  0  0
    9.7225    1.5985    0.0000 O   0  0  0  0  0  0  0  0  0  0  0  0
    8.6974    4.0376    0.0000 O   0  0  0  0  0  0  0  0  0  0  0  0
    6.4763    0.0293    0.0000 N   0  0  0  0  0  0  0  0  0  0  0  0
    8.0761    2.1366    0.0000 N   0  0  0  0  0  0  0  0  0  0  0  0
    6.1279   -3.6270    0.0000 N   0  0  0  0  0  0  0  0  0  0  0  0
    5.8550   -1.8717    0.0000 C   0  0  0  0  0  0  0  0  0  0  0  0
    5.1871   -1.1274    0.0000 C   0  0  0  0  0  0  0  0  0  0  0  0
    6.8335   -1.6655    0.0000 C   0  0  0  0  0  0  0  0  0  0  0  0
    5.4978   -0.1769    0.0000 C   0  0  0  0  0  0  0  0  0  0  0  0
    7.1441   -0.7150    0.0000 C   0  0  0  0  0  0  0  0  0  0  0  0
    6.7870    0.9799    0.0000 C   0  0  0  0  0  0  0  0  0  0  0  0
    5.5443   -2.8222    0.0000 C   0  0  0  0  0  0  0  0  0  0  0  0
    7.7654    1.1861    0.0000 C   0  0  0  0  0  0  0  0  0  0  0  0
    4.5981   -3.1270    0.0000 C   0  0  0  0  0  0  0  0  0  0  0  0
    4.5981   -4.1270    0.0000 C   0  0  0  0  0  0  0  0  0  0  0  0
    3.7320   -2.6270    0.0000 C   0  0  0  0  0  0  0  0  0  0  0  0
    7.4083    2.8809    0.0000 C   0  0  0  0  0  0  0  0  0  0  0  0
    9.0546    2.3428    0.0000 C   0  0  0  0  0  0  0  0  0  0  0  0
    3.7320   -4.6270    0.0000 C   0  0  0  0  0  0  0  0  0  0  0  0
    2.8660   -3.1270    0.0000 C   0  0  0  0  0  0  0  0  0  0  0  0
    7.7189    3.8314    0.0000 C   0  0  0  0  0  0  0  0  0  0  0  0
    2.8660   -4.1270    0.0000 C   0  0  0  0  0  0  0  0  0  0  0  0
    9.3653    3.2933    0.0000 C   0  0  3  0  0  0  0  0  0  0  0  0
   10.3438    3.4996    0.0000 C   0  0  0  0  0  0  0  0  0  0  0  0
   11.3223    3.7058    0.0000 C   0  0  0  0  0  0  0  0  0  0  0  0
    6.2690   -2.3332    0.0000 H   0  0  0  0  0  0  0  0  0  0  0  0
    4.6402   -0.8354    0.0000 H   0  0  0  0  0  0  0  0  0  0  0  0
    4.8046   -1.6153    0.0000 H   0  0  0  0  0  0  0  0  0  0  0  0
    6.8540   -2.2851    0.0000 H   0  0  0  0  0  0  0  0  0  0  0  0
    7.4473   -1.7528    0.0000 H   0  0  0  0  0  0  0  0  0  0  0  0
    5.4772    0.4428    0.0000 H   0  0  0  0  0  0  0  0  0  0  0  0
    4.8840   -0.0895    0.0000 H   0  0  0  0  0  0  0  0  0  0  0  0
    7.6910   -1.0070    0.0000 H   0  0  0  0  0  0  0  0  0  0  0  0
    7.5267   -0.2271    0.0000 H   0  0  0  0  0  0  0  0  0  0  0  0
    6.7664    1.5995    0.0000 H   0  0  0  0  0  0  0  0  0  0  0  0
    6.1731    1.0672    0.0000 H   0  0  0  0  0  0  0  0  0  0  0  0
    7.7860    0.5664    0.0000 H   0  0  0  0  0  0  0  0  0  0  0  0
    8.3793    1.0987    0.0000 H   0  0  0  0  0  0  0  0  0  0  0  0
    3.7320   -2.0070    0.0000 H   0  0  0  0  0  0  0  0  0  0  0  0
    6.8614    3.1729    0.0000 H   0  0  0  0  0  0  0  0  0  0  0  0
    7.0257    2.3930    0.0000 H   0  0  0  0  0  0  0  0  0  0  0  0
    3.7320   -5.2470    0.0000 H   0  0  0  0  0  0  0  0  0  0  0  0
    2.3291   -2.8170    0.0000 H   0  0  0  0  0  0  0  0  0  0  0  0
    8.3083    3.6388    0.0000 H   0  0  0  0  0  0  0  0  0  0  0  0
    7.9115    4.4207    0.0000 H   0  0  0  0  0  0  0  0  0  0  0  0
    7.1296    4.0240    0.0000 H   0  0  0  0  0  0  0  0  0  0  0  0
    9.5579    3.8827    0.0000 H   0  0  0  0  0  0  0  0  0  0  0  0
    8.8900    4.6270    0.0000 H   0  0  0  0  0  0  0  0  0  0  0  0
   11.9290    3.8336    0.0000 H   0  0  0  0  0  0  0  0  0  0  0  0
  1 24  1  0  0  0  0
  2  7  1  0  0  0  0
  2 17  1  0  0  0  0
  3 20  2  0  0  0  0
  4 25  1  0  0  0  0
  4 50  1  0  0  0  0
  5 11  1  0  0  0  0
  5 12  1  0  0  0  0
  5 13  1  0  0  0  0
  6 15  1  0  0  0  0
  6 19  1  0  0  0  0
  6 20  1  0  0  0  0
  7 14  2  0  0  0  0
  8  9  1  0  0  0  0
  8 10  1  0  0  0  0
  8 14  1  0  0  0  0
  8 28  1  0  0  0  0
  9 11  1  0  0  0  0
  9 29  1  0  0  0  0
  9 30  1  0  0  0  0
 10 12  1  0  0  0  0
 10 31  1  0  0  0  0
 10 32  1  0  0  0  0
 11 33  1  0  0  0  0
 11 34  1  0  0  0  0
 12 35  1  0  0  0  0
 12 36  1  0  0  0  0
 13 15  1  0  0  0  0
 13 37  1  0  0  0  0
 13 38  1  0  0  0  0
 14 16  1  0  0  0  0
 15 39  1  0  0  0  0
 15 40  1  0  0  0  0
 16 17  2  0  0  0  0
 16 18  1  0  0  0  0
 17 21  1  0  0  0  0
 18 22  2  0  0  0  0
 18 41  1  0  0  0  0
 19 23  1  0  0  0  0
 19 42  1  0  0  0  0
 19 43  1  0  0  0  0
 20 25  1  0  0  0  0
 21 24  2  0  0  0  0
 21 44  1  0  0  0  0
 22 24  1  0  0  0  0
 22 45  1  0  0  0  0
 23 46  1  0  0  0  0
 23 47  1  0  0  0  0
 23 48  1  0  0  0  0
 25 26  1  0  0  0  0
 25 49  1  0  0  0  0
 26 27  3  0  0  0  0
 27 51  1  0  0  0  0
M  END
> <PUBCHEM_COMPOUND_CID>
164092572

> <PUBCHEM_COMPOUND_CANONICALIZED>
1

> <PUBCHEM_CACTVS_COMPLEXITY>
558

> <PUBCHEM_CACTVS_HBOND_ACCEPTOR>
6

> <PUBCHEM_CACTVS_HBOND_DONOR>
1

> <PUBCHEM_CACTVS_ROTATABLE_BOND>
6

> <PUBCHEM_CACTVS_SUBSKEYS>
AAADceB7MQAAAAAAAAAAAAAAAAAAAWAAAAA8QAAAAAAAAFgB8AAAHwAECAAADRzhng4yhtMQAgDpG6VyUgqCAAAkIAAomCF+TNoKdrqAlZOUMYBmxhmYyceYyOCOAAAAAAAIAAAAAAAAABAAAAAAAAAAAA==

> <PUBCHEM_IUPAC_OPENEYE_NAME>
N-ethyl-N-[2-[4-(6-fluoro-1,2-benzoxazol-3-yl)-1-piperidyl]ethyl]-2-hydroxy-but-3-ynamide

> <PUBCHEM_IUPAC_CAS_NAME>
N-ethyl-N-[2-[4-(6-fluoro-1,2-benzoxazol-3-yl)-1-piperidinyl]ethyl]-2-hydroxy-3-butynamide

> <PUBCHEM_IUPAC_NAME_MARKUP>
<I>N</I>-ethyl-<I>N</I>-[2-[4-(6-fluoro-1,2-benzoxazol-3-yl)piperidin-1-yl]ethyl]-2-hydroxybut-3-ynamide

> <PUBCHEM_IUPAC_NAME>
N-ethyl-N-[2-[4-(6-fluoro-1,2-benzoxazol-3-yl)piperidin-1-yl]ethyl]-2-hydroxybut-3-ynamide

> <PUBCHEM_IUPAC_SYSTEMATIC_NAME>
N-ethyl-N-[2-[4-(6-fluoranyl-1,2-benzoxazol-3-yl)piperidin-1-yl]ethyl]-2-oxidanyl-but-3-ynamide

> <PUBCHEM_IUPAC_TRADITIONAL_NAME>
N-ethyl-N-[2-[4-(6-fluoroindoxazen-3-yl)piperidino]ethyl]-2-hydroxy-but-3-ynamide

> <PUBCHEM_IUPAC_INCHI>
InChI=1S/C20H24FN3O3/c1-3-17(25)20(26)24(4-2)12-11-23-9-7-14(8-10-23)19-16-6-5-15(21)13-18(16)27-22-19/h1,5-6,13-14,17,25H,4,7-12H2,2H3

> <PUBCHEM_IUPAC_INCHIKEY>
XHLFNFCFXHSWCL-UHFFFAOYSA-N

> <PUBCHEM_XLOGP3_AA>
1.9

> <PUBCHEM_EXACT_MASS>
373.18016980

> <PUBCHEM_MOLECULAR_FORMULA>
C20H24FN3O3

> <PUBCHEM_MOLECULAR_WEIGHT>
373.4

> <PUBCHEM_OPENEYE_CAN_SMILES>
CCN(CCN1CCC(CC1)C2=NOC3=C2C=CC(=C3)F)C(=O)C(C#C)O

> <PUBCHEM_OPENEYE_ISO_SMILES>
CCN(CCN1CCC(CC1)C2=NOC3=C2C=CC(=C3)F)C(=O)C(C#C)O

> <PUBCHEM_CACTVS_TPSA>
69.8

> <PUBCHEM_MONOISOTOPIC_WEIGHT>
373.18016980

> <PUBCHEM_TOTAL_CHARGE>
0

> <PUBCHEM_HEAVY_ATOM_COUNT>
27

> <PUBCHEM_ATOM_DEF_STEREO_COUNT>
0

> <PUBCHEM_ATOM_UDEF_STEREO_COUNT>
1

> <PUBCHEM_BOND_DEF_STEREO_COUNT>
0

> <PUBCHEM_BOND_UDEF_STEREO_COUNT>
0

> <PUBCHEM_ISOTOPIC_ATOM_COUNT>
0

> <PUBCHEM_COMPONENT_COUNT>
1

> <PUBCHEM_CACTVS_TAUTO_COUNT>
-1

> <PUBCHEM_COORDINATE_TYPE>
1
5
255

> <PUBCHEM_BONDANNOTATIONS>
14  16  8
16  17  8
16  18  8
17  21  8
18  22  8
2  17  8
2  7  8
21  24  8
22  24  8
25  4  3
7  14  8

$$$$
