6160690
  -OEChem-09292322522D

 55 57  0     0  0  0  0  0  0999 V2000
    8.0622    0.8689    0.0000 O   0  0  0  0  0  0  0  0  0  0  0  0
    2.8660   -2.1311    0.0000 O   0  0  0  0  0  0  0  0  0  0  0  0
   13.3385   -1.9358    0.0000 N   0  0  0  0  0  0  0  0  0  0  0  0
   14.9384    1.7809    0.0000 N   0  0  0  0  0  0  0  0  0  0  0  0
    7.1962   -0.6311    0.0000 N   0  0  0  0  0  0  0  0  0  0  0  0
   13.3385   -0.3264    0.0000 C   0  0  0  0  0  0  0  0  0  0  0  0
   13.6492    0.6241    0.0000 C   0  0  0  0  0  0  0  0  0  0  0  0
   12.3923   -0.6311    0.0000 C   0  0  0  0  0  0  0  0  0  0  0  0
   12.3923   -1.6311    0.0000 C   0  0  0  0  0  0  0  0  0  0  0  0
   14.6277    0.8304    0.0000 C   0  0  0  0  0  0  0  0  0  0  0  0
   13.9221   -1.1311    0.0000 C   0  0  0  0  0  0  0  0  0  0  0  0
   11.5263   -0.1311    0.0000 C   0  0  0  0  0  0  0  0  0  0  0  0
   11.5263   -2.1311    0.0000 C   0  0  0  0  0  0  0  0  0  0  0  0
   10.6603   -0.6311    0.0000 C   0  0  0  0  0  0  0  0  0  0  0  0
   10.6603   -1.6311    0.0000 C   0  0  0  0  0  0  0  0  0  0  0  0
   15.9169    1.9871    0.0000 C   0  0  0  0  0  0  0  0  0  0  0  0
   14.2705    2.5252    0.0000 C   0  0  0  0  0  0  0  0  0  0  0  0
    9.7942   -0.1311    0.0000 C   0  0  0  0  0  0  0  0  0  0  0  0
    8.9282   -0.6311    0.0000 C   0  0  0  0  0  0  0  0  0  0  0  0
    6.3301   -0.1311    0.0000 C   0  0  0  0  0  0  0  0  0  0  0  0
    5.4641   -0.6311    0.0000 C   0  0  0  0  0  0  0  0  0  0  0  0
    8.0622   -0.1311    0.0000 C   0  0  0  0  0  0  0  0  0  0  0  0
    5.4641   -1.6311    0.0000 C   0  0  0  0  0  0  0  0  0  0  0  0
    4.5981   -0.1311    0.0000 C   0  0  0  0  0  0  0  0  0  0  0  0
    4.5981   -2.1311    0.0000 C   0  0  0  0  0  0  0  0  0  0  0  0
    3.7320   -0.6311    0.0000 C   0  0  0  0  0  0  0  0  0  0  0  0
    3.7320   -1.6311    0.0000 C   0  0  0  0  0  0  0  0  0  0  0  0
    2.0000   -1.6311    0.0000 C   0  0  0  0  0  0  0  0  0  0  0  0
   13.6286    1.2438    0.0000 H   0  0  0  0  0  0  0  0  0  0  0  0
   13.0354    0.7115    0.0000 H   0  0  0  0  0  0  0  0  0  0  0  0
   14.6483    0.2107    0.0000 H   0  0  0  0  0  0  0  0  0  0  0  0
   15.2415    0.7430    0.0000 H   0  0  0  0  0  0  0  0  0  0  0  0
   14.5421   -1.1311    0.0000 H   0  0  0  0  0  0  0  0  0  0  0  0
   13.5311   -2.5252    0.0000 H   0  0  0  0  0  0  0  0  0  0  0  0
   11.5263    0.4889    0.0000 H   0  0  0  0  0  0  0  0  0  0  0  0
   11.5263   -2.7511    0.0000 H   0  0  0  0  0  0  0  0  0  0  0  0
   10.1233   -1.9411    0.0000 H   0  0  0  0  0  0  0  0  0  0  0  0
   16.0447    1.3804    0.0000 H   0  0  0  0  0  0  0  0  0  0  0  0
   16.5235    2.1150    0.0000 H   0  0  0  0  0  0  0  0  0  0  0  0
   15.7890    2.5938    0.0000 H   0  0  0  0  0  0  0  0  0  0  0  0
   14.7320    2.9392    0.0000 H   0  0  0  0  0  0  0  0  0  0  0  0
   13.8564    2.9866    0.0000 H   0  0  0  0  0  0  0  0  0  0  0  0
   13.8090    2.1111    0.0000 H   0  0  0  0  0  0  0  0  0  0  0  0
    9.7942    0.4889    0.0000 H   0  0  0  0  0  0  0  0  0  0  0  0
    8.9282   -1.2511    0.0000 H   0  0  0  0  0  0  0  0  0  0  0  0
    6.7287    0.3438    0.0000 H   0  0  0  0  0  0  0  0  0  0  0  0
    5.9316    0.3438    0.0000 H   0  0  0  0  0  0  0  0  0  0  0  0
    7.1962   -1.2511    0.0000 H   0  0  0  0  0  0  0  0  0  0  0  0
    6.0010   -1.9411    0.0000 H   0  0  0  0  0  0  0  0  0  0  0  0
    4.5981    0.4889    0.0000 H   0  0  0  0  0  0  0  0  0  0  0  0
    4.5981   -2.7511    0.0000 H   0  0  0  0  0  0  0  0  0  0  0  0
    3.1951   -0.3211    0.0000 H   0  0  0  0  0  0  0  0  0  0  0  0
    2.3100   -1.0942    0.0000 H   0  0  0  0  0  0  0  0  0  0  0  0
    1.4631   -1.3211    0.0000 H   0  0  0  0  0  0  0  0  0  0  0  0
    1.6900   -2.1681    0.0000 H   0  0  0  0  0  0  0  0  0  0  0  0
  1 22  2  0  0  0  0
  2 27  1  0  0  0  0
  2 28  1  0  0  0  0
  3  9  1  0  0  0  0
  3 11  1  0  0  0  0
  3 34  1  0  0  0  0
  4 10  1  0  0  0  0
  4 16  1  0  0  0  0
  4 17  1  0  0  0  0
  5 20  1  0  0  0  0
  5 22  1  0  0  0  0
  5 48  1  0  0  0  0
  6  7  1  0  0  0  0
  6  8  1  0  0  0  0
  6 11  2  0  0  0  0
  7 10  1  0  0  0  0
  7 29  1  0  0  0  0
  7 30  1  0  0  0  0
  8  9  2  0  0  0  0
  8 12  1  0  0  0  0
  9 13  1  0  0  0  0
 10 31  1  0  0  0  0
 10 32  1  0  0  0  0
 11 33  1  0  0  0  0
 12 14  2  0  0  0  0
 12 35  1  0  0  0  0
 13 15  2  0  0  0  0
 13 36  1  0  0  0  0
 14 15  1  0  0  0  0
 14 18  1  0  0  0  0
 15 37  1  0  0  0  0
 16 38  1  0  0  0  0
 16 39  1  0  0  0  0
 16 40  1  0  0  0  0
 17 41  1  0  0  0  0
 17 42  1  0  0  0  0
 17 43  1  0  0  0  0
 18 19  2  0  0  0  0
 18 44  1  0  0  0  0
 19 22  1  0  0  0  0
 19 45  1  0  0  0  0
 20 21  1  0  0  0  0
 20 46  1  0  0  0  0
 20 47  1  0  0  0  0
 21 23  2  0  0  0  0
 21 24  1  0  0  0  0
 23 25  1  0  0  0  0
 23 49  1  0  0  0  0
 24 26  2  0  0  0  0
 24 50  1  0  0  0  0
 25 27  2  0  0  0  0
 25 51  1  0  0  0  0
 26 27  1  0  0  0  0
 26 52  1  0  0  0  0
 28 53  1  0  0  0  0
 28 54  1  0  0  0  0
 28 55  1  0  0  0  0
M  END
> <PUBCHEM_COMPOUND_CID>
6160690

> <PUBCHEM_COMPOUND_CANONICALIZED>
1

> <PUBCHEM_CACTVS_COMPLEXITY>
514

> <PUBCHEM_CACTVS_HBOND_ACCEPTOR>
3

> <PUBCHEM_CACTVS_HBOND_DONOR>
2

> <PUBCHEM_CACTVS_ROTATABLE_BOND>
8

> <PUBCHEM_CACTVS_SUBSKEYS>
AAADceB7MAAAAAAAAAAAAAAAAAAAAWAAAAAwYAAAAAAAAFgB9AAAHgAQAAAADAzBngY+xvPJlACoAzV3VACCiCAxIiAI2aA+bNgMJuLEsZuEMChk1hHI6YeQ0MIOqAACAAACAABQAAQAAAQAAAAAAAAAAA==

> <PUBCHEM_IUPAC_OPENEYE_NAME>
(E)-3-[3-[2-(dimethylamino)ethyl]-1H-indol-5-yl]-N-[(4-methoxyphenyl)methyl]prop-2-enamide

> <PUBCHEM_IUPAC_CAS_NAME>
(E)-3-[3-[2-(dimethylamino)ethyl]-1H-indol-5-yl]-N-[(4-methoxyphenyl)methyl]-2-propenamide

> <PUBCHEM_IUPAC_NAME_MARKUP>
(<I>E</I>)-3-[3-[2-(dimethylamino)ethyl]-1<I>H</I>-indol-5-yl]-<I>N</I>-[(4-methoxyphenyl)methyl]prop-2-enamide

> <PUBCHEM_IUPAC_NAME>
(E)-3-[3-[2-(dimethylamino)ethyl]-1H-indol-5-yl]-N-[(4-methoxyphenyl)methyl]prop-2-enamide

> <PUBCHEM_IUPAC_SYSTEMATIC_NAME>
(E)-3-[3-[2-(dimethylamino)ethyl]-1H-indol-5-yl]-N-[(4-methoxyphenyl)methyl]prop-2-enamide

> <PUBCHEM_IUPAC_TRADITIONAL_NAME>
(E)-3-[3-[2-(dimethylamino)ethyl]-1H-indol-5-yl]-N-p-anisyl-acrylamide

> <PUBCHEM_IUPAC_INCHI>
InChI=1S/C23H27N3O2/c1-26(2)13-12-19-16-24-22-10-6-17(14-21(19)22)7-11-23(27)25-15-18-4-8-20(28-3)9-5-18/h4-11,14,16,24H,12-13,15H2,1-3H3,(H,25,27)/b11-7+

> <PUBCHEM_IUPAC_INCHIKEY>
LBVZWEWTNUDWNS-YRNVUSSQSA-N

> <PUBCHEM_XLOGP3>
3.2

> <PUBCHEM_EXACT_MASS>
377.21032711

> <PUBCHEM_MOLECULAR_FORMULA>
C23H27N3O2

> <PUBCHEM_MOLECULAR_WEIGHT>
377.5

> <PUBCHEM_OPENEYE_CAN_SMILES>
CN(C)CCC1=CNC2=C1C=C(C=C2)C=CC(=O)NCC3=CC=C(C=C3)OC

> <PUBCHEM_OPENEYE_ISO_SMILES>
CN(C)CCC1=CNC2=C1C=C(C=C2)/C=C/C(=O)NCC3=CC=C(C=C3)OC

> <PUBCHEM_CACTVS_TPSA>
57.4

> <PUBCHEM_MONOISOTOPIC_WEIGHT>
377.21032711

> <PUBCHEM_TOTAL_CHARGE>
0

> <PUBCHEM_HEAVY_ATOM_COUNT>
28

> <PUBCHEM_ATOM_DEF_STEREO_COUNT>
0

> <PUBCHEM_ATOM_UDEF_STEREO_COUNT>
0

> <PUBCHEM_BOND_DEF_STEREO_COUNT>
1

> <PUBCHEM_BOND_UDEF_STEREO_COUNT>
0

> <PUBCHEM_ISOTOPIC_ATOM_COUNT>
0

> <PUBCHEM_COMPONENT_COUNT>
1

> <PUBCHEM_CACTVS_TAUTO_COUNT>
-1

> <PUBCHEM_COORDINATE_TYPE>
1
5
255

> <PUBCHEM_BONDANNOTATIONS>
12  14  8
13  15  8
14  15  8
21  23  8
21  24  8
23  25  8
24  26  8
25  27  8
26  27  8
3  11  8
3  9  8
6  11  8
6  8  8
8  12  8
8  9  8
9  13  8

$$$$
