49850870
  -OEChem-09292322312D

 58 61  0     0  0  0  0  0  0999 V2000
    3.0000    4.7673    0.0000 S   0  0  0  0  0  0  0  0  0  0  0  0
    2.0000    4.7673    0.0000 O   0  0  0  0  0  0  0  0  0  0  0  0
    4.0000    4.7673    0.0000 O   0  0  0  0  0  0  0  0  0  0  0  0
    5.5981   -0.7327    0.0000 N   0  0  0  0  0  0  0  0  0  0  0  0
    5.5981   -2.7327    0.0000 N   0  0  0  0  0  0  0  0  0  0  0  0
    7.3580   -5.7673    0.0000 N   0  0  0  0  0  0  0  0  0  0  0  0
    3.0000    3.7673    0.0000 N   0  0  0  0  0  0  0  0  0  0  0  0
    4.7320   -1.2327    0.0000 C   0  0  0  0  0  0  0  0  0  0  0  0
    6.4641   -1.2327    0.0000 C   0  0  0  0  0  0  0  0  0  0  0  0
    4.7320   -2.2327    0.0000 C   0  0  0  0  0  0  0  0  0  0  0  0
    6.4641   -2.2327    0.0000 C   0  0  0  0  0  0  0  0  0  0  0  0
    5.5981    0.2673    0.0000 C   0  0  0  0  0  0  0  0  0  0  0  0
    5.5981   -3.7327    0.0000 C   0  0  0  0  0  0  0  0  0  0  0  0
    4.7320    0.7673    0.0000 C   0  0  0  0  0  0  0  0  0  0  0  0
    6.4641   -4.2327    0.0000 C   0  0  0  0  0  0  0  0  0  0  0  0
    4.7320    1.7673    0.0000 C   0  0  0  0  0  0  0  0  0  0  0  0
    4.7320   -4.2327    0.0000 C   0  0  0  0  0  0  0  0  0  0  0  0
    6.4641   -5.2327    0.0000 C   0  0  0  0  0  0  0  0  0  0  0  0
    7.3580   -3.6980    0.0000 C   0  0  0  0  0  0  0  0  0  0  0  0
    4.7320   -5.2327    0.0000 C   0  0  0  0  0  0  0  0  0  0  0  0
    3.8660    2.2673    0.0000 C   0  0  0  0  0  0  0  0  0  0  0  0
    5.5981   -5.7327    0.0000 C   0  0  0  0  0  0  0  0  0  0  0  0
    5.5981    2.2673    0.0000 C   0  0  0  0  0  0  0  0  0  0  0  0
    3.8660    3.2673    0.0000 C   0  0  0  0  0  0  0  0  0  0  0  0
    8.2641   -4.2118    0.0000 C   0  0  0  0  0  0  0  0  0  0  0  0
    8.2641   -5.2535    0.0000 C   0  0  0  0  0  0  0  0  0  0  0  0
    5.5981    3.2673    0.0000 C   0  0  0  0  0  0  0  0  0  0  0  0
    4.7320    3.7673    0.0000 C   0  0  0  0  0  0  0  0  0  0  0  0
    9.1282   -5.7568    0.0000 C   0  0  0  0  0  0  0  0  0  0  0  0
    3.0000    5.7673    0.0000 C   0  0  0  0  0  0  0  0  0  0  0  0
    4.5200   -0.6501    0.0000 H   0  0  0  0  0  0  0  0  0  0  0  0
    4.1215   -1.3403    0.0000 H   0  0  0  0  0  0  0  0  0  0  0  0
    7.0747   -1.3403    0.0000 H   0  0  0  0  0  0  0  0  0  0  0  0
    6.6762   -0.6501    0.0000 H   0  0  0  0  0  0  0  0  0  0  0  0
    4.1215   -2.1250    0.0000 H   0  0  0  0  0  0  0  0  0  0  0  0
    4.5200   -2.8153    0.0000 H   0  0  0  0  0  0  0  0  0  0  0  0
    6.6762   -2.8153    0.0000 H   0  0  0  0  0  0  0  0  0  0  0  0
    7.0747   -2.1250    0.0000 H   0  0  0  0  0  0  0  0  0  0  0  0
    6.2087    0.1597    0.0000 H   0  0  0  0  0  0  0  0  0  0  0  0
    5.8101    0.8499    0.0000 H   0  0  0  0  0  0  0  0  0  0  0  0
    4.1215    0.8750    0.0000 H   0  0  0  0  0  0  0  0  0  0  0  0
    4.5200    0.1847    0.0000 H   0  0  0  0  0  0  0  0  0  0  0  0
    4.1951   -3.9227    0.0000 H   0  0  0  0  0  0  0  0  0  0  0  0
    7.3509   -3.0780    0.0000 H   0  0  0  0  0  0  0  0  0  0  0  0
    4.1951   -5.5427    0.0000 H   0  0  0  0  0  0  0  0  0  0  0  0
    3.3291    1.9573    0.0000 H   0  0  0  0  0  0  0  0  0  0  0  0
    5.5981   -6.3527    0.0000 H   0  0  0  0  0  0  0  0  0  0  0  0
    6.1350    1.9573    0.0000 H   0  0  0  0  0  0  0  0  0  0  0  0
    8.7998   -3.8998    0.0000 H   0  0  0  0  0  0  0  0  0  0  0  0
    6.1350    3.5773    0.0000 H   0  0  0  0  0  0  0  0  0  0  0  0
    4.7320    4.3873    0.0000 H   0  0  0  0  0  0  0  0  0  0  0  0
    2.4631    3.4573    0.0000 H   0  0  0  0  0  0  0  0  0  0  0  0
    8.8161   -6.2926    0.0000 H   0  0  0  0  0  0  0  0  0  0  0  0
    9.6639   -6.0689    0.0000 H   0  0  0  0  0  0  0  0  0  0  0  0
    9.4403   -5.2211    0.0000 H   0  0  0  0  0  0  0  0  0  0  0  0
    3.6200    5.7673    0.0000 H   0  0  0  0  0  0  0  0  0  0  0  0
    3.0000    6.3873    0.0000 H   0  0  0  0  0  0  0  0  0  0  0  0
    2.3800    5.7673    0.0000 H   0  0  0  0  0  0  0  0  0  0  0  0
  1  2  2  0  0  0  0
  1  3  2  0  0  0  0
  1  7  1  0  0  0  0
  1 30  1  0  0  0  0
  4  8  1  0  0  0  0
  4  9  1  0  0  0  0
  4 12  1  0  0  0  0
  5 10  1  0  0  0  0
  5 11  1  0  0  0  0
  5 13  1  0  0  0  0
  6 18  1  0  0  0  0
  6 26  2  0  0  0  0
  7 24  1  0  0  0  0
  7 52  1  0  0  0  0
  8 10  1  0  0  0  0
  8 31  1  0  0  0  0
  8 32  1  0  0  0  0
  9 11  1  0  0  0  0
  9 33  1  0  0  0  0
  9 34  1  0  0  0  0
 10 35  1  0  0  0  0
 10 36  1  0  0  0  0
 11 37  1  0  0  0  0
 11 38  1  0  0  0  0
 12 14  1  0  0  0  0
 12 39  1  0  0  0  0
 12 40  1  0  0  0  0
 13 15  1  0  0  0  0
 13 17  2  0  0  0  0
 14 16  1  0  0  0  0
 14 41  1  0  0  0  0
 14 42  1  0  0  0  0
 15 18  2  0  0  0  0
 15 19  1  0  0  0  0
 16 21  2  0  0  0  0
 16 23  1  0  0  0  0
 17 20  1  0  0  0  0
 17 43  1  0  0  0  0
 18 22  1  0  0  0  0
 19 25  2  0  0  0  0
 19 44  1  0  0  0  0
 20 22  2  0  0  0  0
 20 45  1  0  0  0  0
 21 24  1  0  0  0  0
 21 46  1  0  0  0  0
 22 47  1  0  0  0  0
 23 27  2  0  0  0  0
 23 48  1  0  0  0  0
 24 28  2  0  0  0  0
 25 26  1  0  0  0  0
 25 49  1  0  0  0  0
 26 29  1  0  0  0  0
 27 28  1  0  0  0  0
 27 50  1  0  0  0  0
 28 51  1  0  0  0  0
 29 53  1  0  0  0  0
 29 54  1  0  0  0  0
 29 55  1  0  0  0  0
 30 56  1  0  0  0  0
 30 57  1  0  0  0  0
 30 58  1  0  0  0  0
M  END
> <PUBCHEM_COMPOUND_CID>
49850870

> <PUBCHEM_COMPOUND_CANONICALIZED>
1

> <PUBCHEM_CACTVS_COMPLEXITY>
644

> <PUBCHEM_CACTVS_HBOND_ACCEPTOR>
6

> <PUBCHEM_CACTVS_HBOND_DONOR>
1

> <PUBCHEM_CACTVS_ROTATABLE_BOND>
6

> <PUBCHEM_CACTVS_SUBSKEYS>
AAADceB7sABAAAAAAAAAAAAAAAAAAAAAAAA8eIEAAAAAAACx9AAAHAQQQAAADAjBHgSywPNIEAKgAyRiRHCCgCAhAiAImCA4ZJgIYOLA0dGUJAhgkADIyAcQgIAOAAAAQAQCAAAAAACACAQAAAAAAAAAAA==

> <PUBCHEM_IUPAC_OPENEYE_NAME>
N-[3-[2-[4-(2-methyl-5-quinolyl)piperazin-1-yl]ethyl]phenyl]methanesulfonamide

> <PUBCHEM_IUPAC_CAS_NAME>
N-[3-[2-[4-(2-methyl-5-quinolinyl)-1-piperazinyl]ethyl]phenyl]methanesulfonamide

> <PUBCHEM_IUPAC_NAME_MARKUP>
<I>N</I>-[3-[2-[4-(2-methylquinolin-5-yl)piperazin-1-yl]ethyl]phenyl]methanesulfonamide

> <PUBCHEM_IUPAC_NAME>
N-[3-[2-[4-(2-methylquinolin-5-yl)piperazin-1-yl]ethyl]phenyl]methanesulfonamide

> <PUBCHEM_IUPAC_SYSTEMATIC_NAME>
N-[3-[2-[4-(2-methylquinolin-5-yl)piperazin-1-yl]ethyl]phenyl]methanesulfonamide

> <PUBCHEM_IUPAC_TRADITIONAL_NAME>
N-[3-[2-[4-(2-methyl-5-quinolyl)piperazino]ethyl]phenyl]methanesulfonamide

> <PUBCHEM_IUPAC_INCHI>
InChI=1S/C23H28N4O2S/c1-18-9-10-21-22(24-18)7-4-8-23(21)27-15-13-26(14-16-27)12-11-19-5-3-6-20(17-19)25-30(2,28)29/h3-10,17,25H,11-16H2,1-2H3

> <PUBCHEM_IUPAC_INCHIKEY>
XKHJTHWUWGJDOX-UHFFFAOYSA-N

> <PUBCHEM_XLOGP3_AA>
3.4

> <PUBCHEM_EXACT_MASS>
424.19329732

> <PUBCHEM_MOLECULAR_FORMULA>
C23H28N4O2S

> <PUBCHEM_MOLECULAR_WEIGHT>
424.6

> <PUBCHEM_OPENEYE_CAN_SMILES>
CC1=NC2=C(C=C1)C(=CC=C2)N3CCN(CC3)CCC4=CC(=CC=C4)NS(=O)(=O)C

> <PUBCHEM_OPENEYE_ISO_SMILES>
CC1=NC2=C(C=C1)C(=CC=C2)N3CCN(CC3)CCC4=CC(=CC=C4)NS(=O)(=O)C

> <PUBCHEM_CACTVS_TPSA>
73.9

> <PUBCHEM_MONOISOTOPIC_WEIGHT>
424.19329732

> <PUBCHEM_TOTAL_CHARGE>
0

> <PUBCHEM_HEAVY_ATOM_COUNT>
30

> <PUBCHEM_ATOM_DEF_STEREO_COUNT>
0

> <PUBCHEM_ATOM_UDEF_STEREO_COUNT>
0

> <PUBCHEM_BOND_DEF_STEREO_COUNT>
0

> <PUBCHEM_BOND_UDEF_STEREO_COUNT>
0

> <PUBCHEM_ISOTOPIC_ATOM_COUNT>
0

> <PUBCHEM_COMPONENT_COUNT>
1

> <PUBCHEM_CACTVS_TAUTO_COUNT>
-1

> <PUBCHEM_COORDINATE_TYPE>
1
5
255

> <PUBCHEM_BONDANNOTATIONS>
13  15  8
13  17  8
15  18  8
15  19  8
16  21  8
16  23  8
17  20  8
18  22  8
19  25  8
20  22  8
21  24  8
23  27  8
24  28  8
25  26  8
27  28  8
6  18  8
6  26  8

$$$$
