127025243
  -OEChem-09292322362D

 62 65  0     1  0  0  0  0  0999 V2000
    3.2870   -3.2854    0.0000 S   0  0  0  0  0  0  0  0  0  0  0  0
    2.5924   -7.2246    0.0000 F   0  0  0  0  0  0  0  0  0  0  0  0
    5.4726    2.8945    0.0000 O   0  0  0  0  0  0  0  0  0  0  0  0
    2.3022   -3.1118    0.0000 O   0  0  0  0  0  0  0  0  0  0  0  0
    4.2718   -3.4590    0.0000 O   0  0  0  0  0  0  0  0  0  0  0  0
    5.9726    0.2964    0.0000 N   0  0  0  0  0  0  0  0  0  0  0  0
    3.4606   -2.3006    0.0000 N   0  0  0  0  0  0  0  0  0  0  0  0
    6.7092   -0.6862    0.0000 C   0  0  3  0  0  0  0  0  0  0  0  0
    6.4504   -1.6521    0.0000 C   0  0  3  0  0  0  0  0  0  0  0  0
    8.1082   -1.1950    0.0000 C   0  0  0  0  0  0  0  0  0  0  0  0
    7.8493   -2.1609    0.0000 C   0  0  0  0  0  0  0  0  0  0  0  0
    4.6760   -0.9973    0.0000 C   0  0  0  0  0  0  0  0  0  0  0  0
    5.2294   -2.5178    0.0000 C   0  0  0  0  0  0  0  0  0  0  0  0
    4.4003   -1.9586    0.0000 C   0  0  0  0  0  0  0  0  0  0  0  0
    5.4726    1.1625    0.0000 C   0  0  0  0  0  0  0  0  0  0  0  0
    5.9726    2.0285    0.0000 C   0  0  0  0  0  0  0  0  0  0  0  0
    3.1133   -4.2702    0.0000 C   0  0  0  0  0  0  0  0  0  0  0  0
    5.9726    3.7605    0.0000 C   0  0  0  0  0  0  0  0  0  0  0  0
    2.1736   -4.6122    0.0000 C   0  0  0  0  0  0  0  0  0  0  0  0
    3.8794   -4.9130    0.0000 C   0  0  0  0  0  0  0  0  0  0  0  0
    5.4726    4.6266    0.0000 C   0  0  0  0  0  0  0  0  0  0  0  0
    6.9726    3.7605    0.0000 C   0  0  0  0  0  0  0  0  0  0  0  0
    2.0000   -5.5970    0.0000 C   0  0  0  0  0  0  0  0  0  0  0  0
    3.7057   -5.8978    0.0000 C   0  0  0  0  0  0  0  0  0  0  0  0
    5.9726    5.4926    0.0000 C   0  0  0  0  0  0  0  0  0  0  0  0
    2.7660   -6.2398    0.0000 C   0  0  0  0  0  0  0  0  0  0  0  0
    5.4726    6.3586    0.0000 C   0  0  0  0  0  0  0  0  0  0  0  0
    7.4726    4.6266    0.0000 C   0  0  0  0  0  0  0  0  0  0  0  0
    6.9726    5.4926    0.0000 C   0  0  0  0  0  0  0  0  0  0  0  0
    5.9726    7.2246    0.0000 C   0  0  0  0  0  0  0  0  0  0  0  0
    4.4726    6.3586    0.0000 C   0  0  0  0  0  0  0  0  0  0  0  0
    7.0786   -0.1882    0.0000 H   0  0  0  0  0  0  0  0  0  0  0  0
    6.5332   -2.2666    0.0000 H   0  0  0  0  0  0  0  0  0  0  0  0
    8.7021   -1.3728    0.0000 H   0  0  0  0  0  0  0  0  0  0  0  0
    8.3031   -0.6064    0.0000 H   0  0  0  0  0  0  0  0  0  0  0  0
    7.6544   -2.7495    0.0000 H   0  0  0  0  0  0  0  0  0  0  0  0
    8.4433   -2.3387    0.0000 H   0  0  0  0  0  0  0  0  0  0  0  0
    4.6709   -0.3773    0.0000 H   0  0  0  0  0  0  0  0  0  0  0  0
    4.0616   -0.9135    0.0000 H   0  0  0  0  0  0  0  0  0  0  0  0
    4.8235   -2.9865    0.0000 H   0  0  0  0  0  0  0  0  0  0  0  0
    5.6460   -2.9769    0.0000 H   0  0  0  0  0  0  0  0  0  0  0  0
    3.9469   -1.5357    0.0000 H   0  0  0  0  0  0  0  0  0  0  0  0
    4.9976    1.5610    0.0000 H   0  0  0  0  0  0  0  0  0  0  0  0
    4.9976    0.7639    0.0000 H   0  0  0  0  0  0  0  0  0  0  0  0
    2.9857   -1.9021    0.0000 H   0  0  0  0  0  0  0  0  0  0  0  0
    6.4475    1.6300    0.0000 H   0  0  0  0  0  0  0  0  0  0  0  0
    6.4475    2.4270    0.0000 H   0  0  0  0  0  0  0  0  0  0  0  0
    1.6987   -4.2137    0.0000 H   0  0  0  0  0  0  0  0  0  0  0  0
    4.4620   -4.7010    0.0000 H   0  0  0  0  0  0  0  0  0  0  0  0
    4.8526    4.6266    0.0000 H   0  0  0  0  0  0  0  0  0  0  0  0
    7.2826    3.2236    0.0000 H   0  0  0  0  0  0  0  0  0  0  0  0
    1.4174   -5.8091    0.0000 H   0  0  0  0  0  0  0  0  0  0  0  0
    4.1807   -6.2963    0.0000 H   0  0  0  0  0  0  0  0  0  0  0  0
    5.1626    6.8956    0.0000 H   0  0  0  0  0  0  0  0  0  0  0  0
    8.0926    4.6266    0.0000 H   0  0  0  0  0  0  0  0  0  0  0  0
    7.2826    6.0295    0.0000 H   0  0  0  0  0  0  0  0  0  0  0  0
    6.5095    6.9146    0.0000 H   0  0  0  0  0  0  0  0  0  0  0  0
    6.2826    7.7616    0.0000 H   0  0  0  0  0  0  0  0  0  0  0  0
    5.4357    7.5346    0.0000 H   0  0  0  0  0  0  0  0  0  0  0  0
    4.4726    6.9786    0.0000 H   0  0  0  0  0  0  0  0  0  0  0  0
    3.8526    6.3586    0.0000 H   0  0  0  0  0  0  0  0  0  0  0  0
    4.4726    5.7386    0.0000 H   0  0  0  0  0  0  0  0  0  0  0  0
  1  4  2  0  0  0  0
  1  5  2  0  0  0  0
  1  7  1  0  0  0  0
  1 17  1  0  0  0  0
  2 26  1  0  0  0  0
  3 16  1  0  0  0  0
  3 18  1  0  0  0  0
  6  8  1  0  0  0  0
  6  9  1  0  0  0  0
  6 15  1  0  0  0  0
  7 14  1  0  0  0  0
  7 45  1  0  0  0  0
  8 10  1  0  0  0  0
  8 12  1  0  0  0  0
  8 32  1  0  0  0  0
  9 11  1  0  0  0  0
  9 13  1  0  0  0  0
  9 33  1  0  0  0  0
 10 11  1  0  0  0  0
 10 34  1  0  0  0  0
 10 35  1  0  0  0  0
 11 36  1  0  0  0  0
 11 37  1  0  0  0  0
 12 14  1  0  0  0  0
 12 38  1  0  0  0  0
 12 39  1  0  0  0  0
 13 14  1  0  0  0  0
 13 40  1  0  0  0  0
 13 41  1  0  0  0  0
 14 42  1  0  0  0  0
 15 16  1  0  0  0  0
 15 43  1  0  0  0  0
 15 44  1  0  0  0  0
 16 46  1  0  0  0  0
 16 47  1  0  0  0  0
 17 19  2  0  0  0  0
 17 20  1  0  0  0  0
 18 21  1  0  0  0  0
 18 22  2  0  0  0  0
 19 23  1  0  0  0  0
 19 48  1  0  0  0  0
 20 24  2  0  0  0  0
 20 49  1  0  0  0  0
 21 25  2  0  0  0  0
 21 50  1  0  0  0  0
 22 28  1  0  0  0  0
 22 51  1  0  0  0  0
 23 26  2  0  0  0  0
 23 52  1  0  0  0  0
 24 26  1  0  0  0  0
 24 53  1  0  0  0  0
 25 27  1  0  0  0  0
 25 29  1  0  0  0  0
 27 30  1  0  0  0  0
 27 31  1  0  0  0  0
 27 54  1  0  0  0  0
 28 29  2  0  0  0  0
 28 55  1  0  0  0  0
 29 56  1  0  0  0  0
 30 57  1  0  0  0  0
 30 58  1  0  0  0  0
 30 59  1  0  0  0  0
 31 60  1  0  0  0  0
 31 61  1  0  0  0  0
 31 62  1  0  0  0  0
M  END
> <PUBCHEM_COMPOUND_CID>
127025243

> <PUBCHEM_COMPOUND_CANONICALIZED>
1

> <PUBCHEM_CACTVS_COMPLEXITY>
661

> <PUBCHEM_CACTVS_HBOND_ACCEPTOR>
6

> <PUBCHEM_CACTVS_HBOND_DONOR>
1

> <PUBCHEM_CACTVS_ROTATABLE_BOND>
8

> <PUBCHEM_CACTVS_SUBSKEYS>
AAADceB7MQBAAAAAAAAAAAAAAAAAAWAAAAA8YIAABgAAAAABQAAAHwQQQAAADSzh2A4yB4NABAKAAiBCAHBCCBAgIAAIiJgOCIgOJiKE8RqHOCCk0BGYqAeQwPAOgAABAAAAAAAAAAIAAAAAAAAAAAAAAA==

> <PUBCHEM_IUPAC_OPENEYE_NAME>
4-fluoro-N-[8-[2-(3-isopropylphenoxy)ethyl]-8-azabicyclo[3.2.1]octan-3-yl]benzenesulfonamide

> <PUBCHEM_IUPAC_CAS_NAME>
4-fluoro-N-[8-[2-(3-propan-2-ylphenoxy)ethyl]-8-azabicyclo[3.2.1]octan-3-yl]benzenesulfonamide

> <PUBCHEM_IUPAC_NAME_MARKUP>
4-fluoro-<I>N</I>-[8-[2-(3-propan-2-ylphenoxy)ethyl]-8-azabicyclo[3.2.1]octan-3-yl]benzenesulfonamide

> <PUBCHEM_IUPAC_NAME>
4-fluoro-N-[8-[2-(3-propan-2-ylphenoxy)ethyl]-8-azabicyclo[3.2.1]octan-3-yl]benzenesulfonamide

> <PUBCHEM_IUPAC_SYSTEMATIC_NAME>
4-fluoranyl-N-[8-[2-(3-propan-2-ylphenoxy)ethyl]-8-azabicyclo[3.2.1]octan-3-yl]benzenesulfonamide

> <PUBCHEM_IUPAC_TRADITIONAL_NAME>
4-fluoro-N-[8-[2-(3-isopropylphenoxy)ethyl]-8-azabicyclo[3.2.1]octan-3-yl]benzenesulfonamide

> <PUBCHEM_IUPAC_INCHI>
InChI=1S/C24H31FN2O3S/c1-17(2)18-4-3-5-23(14-18)30-13-12-27-21-8-9-22(27)16-20(15-21)26-31(28,29)24-10-6-19(25)7-11-24/h3-7,10-11,14,17,20-22,26H,8-9,12-13,15-16H2,1-2H3

> <PUBCHEM_IUPAC_INCHIKEY>
DZLVUHJQAQTQCL-UHFFFAOYSA-N

> <PUBCHEM_XLOGP3_AA>
5

> <PUBCHEM_EXACT_MASS>
446.20394219

> <PUBCHEM_MOLECULAR_FORMULA>
C24H31FN2O3S

> <PUBCHEM_MOLECULAR_WEIGHT>
446.6

> <PUBCHEM_OPENEYE_CAN_SMILES>
CC(C)C1=CC(=CC=C1)OCCN2C3CCC2CC(C3)NS(=O)(=O)C4=CC=C(C=C4)F

> <PUBCHEM_OPENEYE_ISO_SMILES>
CC(C)C1=CC(=CC=C1)OCCN2C3CCC2CC(C3)NS(=O)(=O)C4=CC=C(C=C4)F

> <PUBCHEM_CACTVS_TPSA>
67

> <PUBCHEM_MONOISOTOPIC_WEIGHT>
446.20394219

> <PUBCHEM_TOTAL_CHARGE>
0

> <PUBCHEM_HEAVY_ATOM_COUNT>
31

> <PUBCHEM_ATOM_DEF_STEREO_COUNT>
0

> <PUBCHEM_ATOM_UDEF_STEREO_COUNT>
2

> <PUBCHEM_BOND_DEF_STEREO_COUNT>
0

> <PUBCHEM_BOND_UDEF_STEREO_COUNT>
0

> <PUBCHEM_ISOTOPIC_ATOM_COUNT>
0

> <PUBCHEM_COMPONENT_COUNT>
1

> <PUBCHEM_CACTVS_TAUTO_COUNT>
-1

> <PUBCHEM_COORDINATE_TYPE>
1
5
255

> <PUBCHEM_BONDANNOTATIONS>
17  19  8
17  20  8
18  21  8
18  22  8
19  23  8
20  24  8
21  25  8
22  28  8
23  26  8
24  26  8
25  29  8
28  29  8
8  10  3
9  11  3

$$$$
