11675208
  -OEChem-09292322272D

 57 61  0     0  0  0  0  0  0999 V2000
    7.6833   -5.4622    0.0000 O   0  0  0  0  0  0  0  0  0  0  0  0
    5.9233   -0.4276    0.0000 N   0  0  0  0  0  0  0  0  0  0  0  0
    5.9233   -2.4276    0.0000 N   0  0  0  0  0  0  0  0  0  0  0  0
    2.6164    2.9044    0.0000 N   0  0  0  0  0  0  0  0  0  0  0  0
    5.0573   -0.9276    0.0000 C   0  0  0  0  0  0  0  0  0  0  0  0
    6.7893   -0.9276    0.0000 C   0  0  0  0  0  0  0  0  0  0  0  0
    5.0573   -1.9276    0.0000 C   0  0  0  0  0  0  0  0  0  0  0  0
    6.7893   -1.9276    0.0000 C   0  0  0  0  0  0  0  0  0  0  0  0
    5.9233    0.5724    0.0000 C   0  0  0  0  0  0  0  0  0  0  0  0
    5.9233   -3.4276    0.0000 C   0  0  0  0  0  0  0  0  0  0  0  0
    5.0573    1.0724    0.0000 C   0  0  0  0  0  0  0  0  0  0  0  0
    6.7893   -3.9276    0.0000 C   0  0  0  0  0  0  0  0  0  0  0  0
    7.6833   -3.3929    0.0000 C   0  0  0  0  0  0  0  0  0  0  0  0
    5.0573    2.0724    0.0000 C   0  0  0  0  0  0  0  0  0  0  0  0
    6.7893   -4.9276    0.0000 C   0  0  0  0  0  0  0  0  0  0  0  0
    8.5893   -3.9067    0.0000 C   0  0  0  0  0  0  0  0  0  0  0  0
    5.0573   -3.9276    0.0000 C   0  0  0  0  0  0  0  0  0  0  0  0
    4.1912    2.5724    0.0000 C   0  0  0  0  0  0  0  0  0  0  0  0
    8.5893   -4.9484    0.0000 C   0  0  0  0  0  0  0  0  0  0  0  0
    5.9233   -5.4276    0.0000 C   0  0  0  0  0  0  0  0  0  0  0  0
    5.0573   -4.9276    0.0000 C   0  0  0  0  0  0  0  0  0  0  0  0
    4.0882    3.5612    0.0000 C   0  0  0  0  0  0  0  0  0  0  0  0
    3.2835    2.1673    0.0000 C   0  0  0  0  0  0  0  0  0  0  0  0
    3.1097    3.7674    0.0000 C   0  0  0  0  0  0  0  0  0  0  0  0
    4.7560    4.3055    0.0000 C   0  0  0  0  0  0  0  0  0  0  0  0
    2.7990    4.7179    0.0000 C   0  0  0  0  0  0  0  0  0  0  0  0
    4.4454    5.2560    0.0000 C   0  0  0  0  0  0  0  0  0  0  0  0
    3.4669    5.4622    0.0000 C   0  0  0  0  0  0  0  0  0  0  0  0
    4.8452   -0.3449    0.0000 H   0  0  0  0  0  0  0  0  0  0  0  0
    4.4467   -1.0352    0.0000 H   0  0  0  0  0  0  0  0  0  0  0  0
    7.3999   -1.0352    0.0000 H   0  0  0  0  0  0  0  0  0  0  0  0
    7.0014   -0.3449    0.0000 H   0  0  0  0  0  0  0  0  0  0  0  0
    4.4467   -1.8199    0.0000 H   0  0  0  0  0  0  0  0  0  0  0  0
    4.8452   -2.5102    0.0000 H   0  0  0  0  0  0  0  0  0  0  0  0
    7.0014   -2.5102    0.0000 H   0  0  0  0  0  0  0  0  0  0  0  0
    7.3999   -1.8199    0.0000 H   0  0  0  0  0  0  0  0  0  0  0  0
    6.5339    0.4648    0.0000 H   0  0  0  0  0  0  0  0  0  0  0  0
    6.1354    1.1551    0.0000 H   0  0  0  0  0  0  0  0  0  0  0  0
    4.4467    1.1801    0.0000 H   0  0  0  0  0  0  0  0  0  0  0  0
    4.8452    0.4898    0.0000 H   0  0  0  0  0  0  0  0  0  0  0  0
    8.0769   -2.9139    0.0000 H   0  0  0  0  0  0  0  0  0  0  0  0
    7.2787   -2.9231    0.0000 H   0  0  0  0  0  0  0  0  0  0  0  0
    5.6678    1.9648    0.0000 H   0  0  0  0  0  0  0  0  0  0  0  0
    5.2693    2.6551    0.0000 H   0  0  0  0  0  0  0  0  0  0  0  0
    9.2002   -4.0128    0.0000 H   0  0  0  0  0  0  0  0  0  0  0  0
    8.7984   -3.3230    0.0000 H   0  0  0  0  0  0  0  0  0  0  0  0
    4.5203   -3.6176    0.0000 H   0  0  0  0  0  0  0  0  0  0  0  0
    8.7984   -5.5321    0.0000 H   0  0  0  0  0  0  0  0  0  0  0  0
    9.2002   -4.8423    0.0000 H   0  0  0  0  0  0  0  0  0  0  0  0
    5.9233   -6.0476    0.0000 H   0  0  0  0  0  0  0  0  0  0  0  0
    4.5203   -5.2376    0.0000 H   0  0  0  0  0  0  0  0  0  0  0  0
    3.1556    1.5607    0.0000 H   0  0  0  0  0  0  0  0  0  0  0  0
    2.0000    2.8374    0.0000 H   0  0  0  0  0  0  0  0  0  0  0  0
    5.3627    4.1776    0.0000 H   0  0  0  0  0  0  0  0  0  0  0  0
    2.1923    4.8458    0.0000 H   0  0  0  0  0  0  0  0  0  0  0  0
    4.8594    5.7175    0.0000 H   0  0  0  0  0  0  0  0  0  0  0  0
    3.2743    6.0515    0.0000 H   0  0  0  0  0  0  0  0  0  0  0  0
  1 15  1  0  0  0  0
  1 19  1  0  0  0  0
  2  5  1  0  0  0  0
  2  6  1  0  0  0  0
  2  9  1  0  0  0  0
  3  7  1  0  0  0  0
  3  8  1  0  0  0  0
  3 10  1  0  0  0  0
  4 23  1  0  0  0  0
  4 24  1  0  0  0  0
  4 53  1  0  0  0  0
  5  7  1  0  0  0  0
  5 29  1  0  0  0  0
  5 30  1  0  0  0  0
  6  8  1  0  0  0  0
  6 31  1  0  0  0  0
  6 32  1  0  0  0  0
  7 33  1  0  0  0  0
  7 34  1  0  0  0  0
  8 35  1  0  0  0  0
  8 36  1  0  0  0  0
  9 11  1  0  0  0  0
  9 37  1  0  0  0  0
  9 38  1  0  0  0  0
 10 12  2  0  0  0  0
 10 17  1  0  0  0  0
 11 14  1  0  0  0  0
 11 39  1  0  0  0  0
 11 40  1  0  0  0  0
 12 13  1  0  0  0  0
 12 15  1  0  0  0  0
 13 16  1  0  0  0  0
 13 41  1  0  0  0  0
 13 42  1  0  0  0  0
 14 18  1  0  0  0  0
 14 43  1  0  0  0  0
 14 44  1  0  0  0  0
 15 20  2  0  0  0  0
 16 19  1  0  0  0  0
 16 45  1  0  0  0  0
 16 46  1  0  0  0  0
 17 21  2  0  0  0  0
 17 47  1  0  0  0  0
 18 22  1  0  0  0  0
 18 23  2  0  0  0  0
 19 48  1  0  0  0  0
 19 49  1  0  0  0  0
 20 21  1  0  0  0  0
 20 50  1  0  0  0  0
 21 51  1  0  0  0  0
 22 24  1  0  0  0  0
 22 25  2  0  0  0  0
 23 52  1  0  0  0  0
 24 26  2  0  0  0  0
 25 27  1  0  0  0  0
 25 54  1  0  0  0  0
 26 28  1  0  0  0  0
 26 55  1  0  0  0  0
 27 28  2  0  0  0  0
 27 56  1  0  0  0  0
 28 57  1  0  0  0  0
M  END
> <PUBCHEM_COMPOUND_CID>
11675208

> <PUBCHEM_COMPOUND_CANONICALIZED>
1

> <PUBCHEM_CACTVS_COMPLEXITY>
492

> <PUBCHEM_CACTVS_HBOND_ACCEPTOR>
3

> <PUBCHEM_CACTVS_HBOND_DONOR>
1

> <PUBCHEM_CACTVS_ROTATABLE_BOND>
5

> <PUBCHEM_CACTVS_SUBSKEYS>
AAADceB7IAAAAAAAAAAAAAAAAAAAAWAAAAA8aIEAAAAAAFiR9AAAHgAQAAAADAzhngY8xvPJlACgAzRnRACCiCAxIiAI2aA+bJgMZuLEsZuWOCjm0BnI6AeQ0OMOgAAAAgAKAAAAAAAEABQAAAAAAAAAAA==

> <PUBCHEM_IUPAC_OPENEYE_NAME>
3-[3-(4-chroman-5-ylpiperazin-1-yl)propyl]-1H-indole

> <PUBCHEM_IUPAC_CAS_NAME>
3-[3-[4-(3,4-dihydro-2H-1-benzopyran-5-yl)-1-piperazinyl]propyl]-1H-indole

> <PUBCHEM_IUPAC_NAME_MARKUP>
3-[3-[4-(3,4-dihydro-2<I>H</I>-chromen-5-yl)piperazin-1-yl]propyl]-1<I>H</I>-indole

> <PUBCHEM_IUPAC_NAME>
3-[3-[4-(3,4-dihydro-2H-chromen-5-yl)piperazin-1-yl]propyl]-1H-indole

> <PUBCHEM_IUPAC_SYSTEMATIC_NAME>
3-[3-[4-(3,4-dihydro-2H-chromen-5-yl)piperazin-1-yl]propyl]-1H-indole

> <PUBCHEM_IUPAC_TRADITIONAL_NAME>
3-[3-(4-chroman-5-ylpiperazino)propyl]-1H-indole

> <PUBCHEM_IUPAC_INCHI>
InChI=1S/C24H29N3O/c1-2-9-22-20(7-1)19(18-25-22)6-4-12-26-13-15-27(16-14-26)23-10-3-11-24-21(23)8-5-17-28-24/h1-3,7,9-11,18,25H,4-6,8,12-17H2

> <PUBCHEM_IUPAC_INCHIKEY>
VESYQRNECIQPBD-UHFFFAOYSA-N

> <PUBCHEM_XLOGP3_AA>
4.7

> <PUBCHEM_EXACT_MASS>
375.231062557

> <PUBCHEM_MOLECULAR_FORMULA>
C24H29N3O

> <PUBCHEM_MOLECULAR_WEIGHT>
375.5

> <PUBCHEM_OPENEYE_CAN_SMILES>
C1CC2=C(C=CC=C2OC1)N3CCN(CC3)CCCC4=CNC5=CC=CC=C54

> <PUBCHEM_OPENEYE_ISO_SMILES>
C1CC2=C(C=CC=C2OC1)N3CCN(CC3)CCCC4=CNC5=CC=CC=C54

> <PUBCHEM_CACTVS_TPSA>
31.5

> <PUBCHEM_MONOISOTOPIC_WEIGHT>
375.231062557

> <PUBCHEM_TOTAL_CHARGE>
0

> <PUBCHEM_HEAVY_ATOM_COUNT>
28

> <PUBCHEM_ATOM_DEF_STEREO_COUNT>
0

> <PUBCHEM_ATOM_UDEF_STEREO_COUNT>
0

> <PUBCHEM_BOND_DEF_STEREO_COUNT>
0

> <PUBCHEM_BOND_UDEF_STEREO_COUNT>
0

> <PUBCHEM_ISOTOPIC_ATOM_COUNT>
0

> <PUBCHEM_COMPONENT_COUNT>
1

> <PUBCHEM_CACTVS_TAUTO_COUNT>
-1

> <PUBCHEM_COORDINATE_TYPE>
1
5
255

> <PUBCHEM_BONDANNOTATIONS>
10  12  8
10  17  8
12  15  8
15  20  8
17  21  8
18  22  8
18  23  8
20  21  8
22  24  8
22  25  8
24  26  8
25  27  8
26  28  8
27  28  8
4  23  8
4  24  8

$$$$
