118711262
  -OEChem-09292322472D

 51 54  0     1  0  0  0  0  0999 V2000
    7.8547    0.7637    0.0000 O   0  0  0  0  0  0  0  0  0  0  0  0
    3.0000   -0.2604    0.0000 N   0  0  3  0  0  0  0  0  0  0  0  0
    4.4088    0.8631    0.0000 C   0  0  3  0  0  0  0  0  0  0  0  0
    3.4339    0.6406    0.0000 C   0  0  0  0  0  0  0  0  0  0  0  0
    5.1906    0.2396    0.0000 C   0  0  0  0  0  0  0  0  0  0  0  0
    5.1906   -0.7604    0.0000 C   0  0  0  0  0  0  0  0  0  0  0  0
    4.4088   -1.3839    0.0000 C   0  0  0  0  0  0  0  0  0  0  0  0
    3.4339   -1.1614    0.0000 C   0  0  0  0  0  0  0  0  0  0  0  0
    4.6313    1.8380    0.0000 C   0  0  0  0  0  0  0  0  0  0  0  0
    6.0846    0.7743    0.0000 C   0  0  0  0  0  0  0  0  0  0  0  0
    6.0846   -1.2951    0.0000 C   0  0  0  0  0  0  0  0  0  0  0  0
    6.9906   -0.7812    0.0000 C   0  0  0  0  0  0  0  0  0  0  0  0
    2.0000   -0.2604    0.0000 C   0  0  0  0  0  0  0  0  0  0  0  0
    6.9906    0.2604    0.0000 C   0  0  0  0  0  0  0  0  0  0  0  0
    5.5869    2.1328    0.0000 C   0  0  0  0  0  0  0  0  0  0  0  0
    3.8983    2.5182    0.0000 C   0  0  0  0  0  0  0  0  0  0  0  0
    7.8547   -1.2846    0.0000 C   0  0  0  0  0  0  0  0  0  0  0  0
    5.8094    3.1077    0.0000 C   0  0  0  0  0  0  0  0  0  0  0  0
    4.1208    3.4931    0.0000 C   0  0  0  0  0  0  0  0  0  0  0  0
    5.0764    3.7879    0.0000 C   0  0  0  0  0  0  0  0  0  0  0  0
    7.8509   -2.2845    0.0000 C   0  0  0  0  0  0  0  0  0  0  0  0
    8.7227   -0.7879    0.0000 C   0  0  0  0  0  0  0  0  0  0  0  0
    8.7150   -2.7879    0.0000 C   0  0  0  0  0  0  0  0  0  0  0  0
    9.5868   -1.2912    0.0000 C   0  0  0  0  0  0  0  0  0  0  0  0
    9.5829   -2.2912    0.0000 C   0  0  0  0  0  0  0  0  0  0  0  0
    8.7111   -3.7879    0.0000 C   0  0  0  0  0  0  0  0  0  0  0  0
    3.9704    1.3015    0.0000 H   0  0  0  0  0  0  0  0  0  0  0  0
    3.4339    1.2606    0.0000 H   0  0  0  0  0  0  0  0  0  0  0  0
    2.8294    0.7785    0.0000 H   0  0  0  0  0  0  0  0  0  0  0  0
    4.1398   -1.9425    0.0000 H   0  0  0  0  0  0  0  0  0  0  0  0
    4.8936   -1.7705    0.0000 H   0  0  0  0  0  0  0  0  0  0  0  0
    2.8294   -1.2993    0.0000 H   0  0  0  0  0  0  0  0  0  0  0  0
    3.4339   -1.7814    0.0000 H   0  0  0  0  0  0  0  0  0  0  0  0
    6.0774    1.3942    0.0000 H   0  0  0  0  0  0  0  0  0  0  0  0
    6.0774   -1.9150    0.0000 H   0  0  0  0  0  0  0  0  0  0  0  0
    2.0000    0.3596    0.0000 H   0  0  0  0  0  0  0  0  0  0  0  0
    1.3800   -0.2604    0.0000 H   0  0  0  0  0  0  0  0  0  0  0  0
    2.0000   -0.8804    0.0000 H   0  0  0  0  0  0  0  0  0  0  0  0
    6.0414    1.7111    0.0000 H   0  0  0  0  0  0  0  0  0  0  0  0
    3.3058    2.3354    0.0000 H   0  0  0  0  0  0  0  0  0  0  0  0
    6.4019    3.2904    0.0000 H   0  0  0  0  0  0  0  0  0  0  0  0
    3.6663    3.9148    0.0000 H   0  0  0  0  0  0  0  0  0  0  0  0
    7.3128   -2.5925    0.0000 H   0  0  0  0  0  0  0  0  0  0  0  0
    5.2143    4.3923    0.0000 H   0  0  0  0  0  0  0  0  0  0  0  0
    8.7251   -0.1679    0.0000 H   0  0  0  0  0  0  0  0  0  0  0  0
    7.8524    1.3837    0.0000 H   0  0  0  0  0  0  0  0  0  0  0  0
   10.1249   -0.9833    0.0000 H   0  0  0  0  0  0  0  0  0  0  0  0
   10.1187   -2.6033    0.0000 H   0  0  0  0  0  0  0  0  0  0  0  0
    8.0911   -3.7855    0.0000 H   0  0  0  0  0  0  0  0  0  0  0  0
    8.7087   -4.4079    0.0000 H   0  0  0  0  0  0  0  0  0  0  0  0
    9.3311   -3.7903    0.0000 H   0  0  0  0  0  0  0  0  0  0  0  0
  1 14  1  0  0  0  0
  1 46  1  0  0  0  0
  2  4  1  0  0  0  0
  2  8  1  0  0  0  0
  2 13  1  0  0  0  0
  3  4  1  0  0  0  0
  3  5  1  0  0  0  0
  3  9  1  0  0  0  0
  3 27  1  0  0  0  0
  4 28  1  0  0  0  0
  4 29  1  0  0  0  0
  5  6  1  0  0  0  0
  5 10  2  0  0  0  0
  6  7  1  0  0  0  0
  6 11  2  0  0  0  0
  7  8  1  0  0  0  0
  7 30  1  0  0  0  0
  7 31  1  0  0  0  0
  8 32  1  0  0  0  0
  8 33  1  0  0  0  0
  9 15  2  0  0  0  0
  9 16  1  0  0  0  0
 10 14  1  0  0  0  0
 10 34  1  0  0  0  0
 11 12  1  0  0  0  0
 11 35  1  0  0  0  0
 12 14  2  0  0  0  0
 12 17  1  0  0  0  0
 13 36  1  0  0  0  0
 13 37  1  0  0  0  0
 13 38  1  0  0  0  0
 15 18  1  0  0  0  0
 15 39  1  0  0  0  0
 16 19  2  0  0  0  0
 16 40  1  0  0  0  0
 17 21  1  0  0  0  0
 17 22  2  0  0  0  0
 18 20  2  0  0  0  0
 18 41  1  0  0  0  0
 19 20  1  0  0  0  0
 19 42  1  0  0  0  0
 20 44  1  0  0  0  0
 21 23  2  0  0  0  0
 21 43  1  0  0  0  0
 22 24  1  0  0  0  0
 22 45  1  0  0  0  0
 23 25  1  0  0  0  0
 23 26  1  0  0  0  0
 24 25  2  0  0  0  0
 24 47  1  0  0  0  0
 25 48  1  0  0  0  0
 26 49  1  0  0  0  0
 26 50  1  0  0  0  0
 26 51  1  0  0  0  0
M  END
> <PUBCHEM_COMPOUND_CID>
118711262

> <PUBCHEM_COMPOUND_CANONICALIZED>
1

> <PUBCHEM_CACTVS_COMPLEXITY>
446

> <PUBCHEM_CACTVS_HBOND_ACCEPTOR>
2

> <PUBCHEM_CACTVS_HBOND_DONOR>
1

> <PUBCHEM_CACTVS_ROTATABLE_BOND>
2

> <PUBCHEM_CACTVS_SUBSKEYS>
AAADceB6IAAAAAAAAAAAAAAAAAAAAAAAAAAwYMAABYAAAAABUAAAHgAACAAADQTBmAQyBoMAAgCAAiBCAAACAAAgIAAIiAAOCIgIJiKCkROEcAAkwBGImAeQ0PIO4AADAAAYAADAAAYAADAAAAAAAAAAAA==

> <PUBCHEM_IUPAC_OPENEYE_NAME>
3-methyl-8-(m-tolyl)-5-phenyl-1,2,4,5-tetrahydro-3-benzazepin-7-ol

> <PUBCHEM_IUPAC_CAS_NAME>
3-methyl-8-(3-methylphenyl)-5-phenyl-1,2,4,5-tetrahydro-3-benzazepin-7-ol

> <PUBCHEM_IUPAC_NAME_MARKUP>
3-methyl-8-(3-methylphenyl)-5-phenyl-1,2,4,5-tetrahydro-3-benzazepin-7-ol

> <PUBCHEM_IUPAC_NAME>
3-methyl-8-(3-methylphenyl)-5-phenyl-1,2,4,5-tetrahydro-3-benzazepin-7-ol

> <PUBCHEM_IUPAC_SYSTEMATIC_NAME>
3-methyl-8-(3-methylphenyl)-5-phenyl-1,2,4,5-tetrahydro-3-benzazepin-7-ol

> <PUBCHEM_IUPAC_TRADITIONAL_NAME>
3-methyl-8-(m-tolyl)-5-phenyl-1,2,4,5-tetrahydro-3-benzazepin-7-ol

> <PUBCHEM_IUPAC_INCHI>
InChI=1S/C24H25NO/c1-17-7-6-10-19(13-17)22-14-20-11-12-25(2)16-23(21(20)15-24(22)26)18-8-4-3-5-9-18/h3-10,13-15,23,26H,11-12,16H2,1-2H3

> <PUBCHEM_IUPAC_INCHIKEY>
IRKUMRQQBHRFLD-UHFFFAOYSA-N

> <PUBCHEM_XLOGP3_AA>
5.3

> <PUBCHEM_EXACT_MASS>
343.193614421

> <PUBCHEM_MOLECULAR_FORMULA>
C24H25NO

> <PUBCHEM_MOLECULAR_WEIGHT>
343.5

> <PUBCHEM_OPENEYE_CAN_SMILES>
CC1=CC(=CC=C1)C2=C(C=C3C(CN(CCC3=C2)C)C4=CC=CC=C4)O

> <PUBCHEM_OPENEYE_ISO_SMILES>
CC1=CC(=CC=C1)C2=C(C=C3C(CN(CCC3=C2)C)C4=CC=CC=C4)O

> <PUBCHEM_CACTVS_TPSA>
23.5

> <PUBCHEM_MONOISOTOPIC_WEIGHT>
343.193614421

> <PUBCHEM_TOTAL_CHARGE>
0

> <PUBCHEM_HEAVY_ATOM_COUNT>
26

> <PUBCHEM_ATOM_DEF_STEREO_COUNT>
0

> <PUBCHEM_ATOM_UDEF_STEREO_COUNT>
1

> <PUBCHEM_BOND_DEF_STEREO_COUNT>
0

> <PUBCHEM_BOND_UDEF_STEREO_COUNT>
0

> <PUBCHEM_ISOTOPIC_ATOM_COUNT>
0

> <PUBCHEM_COMPONENT_COUNT>
1

> <PUBCHEM_CACTVS_TAUTO_COUNT>
-1

> <PUBCHEM_COORDINATE_TYPE>
1
5
255

> <PUBCHEM_BONDANNOTATIONS>
10  14  8
11  12  8
12  14  8
15  18  8
16  19  8
17  21  8
17  22  8
18  20  8
19  20  8
21  23  8
22  24  8
23  25  8
24  25  8
3  9  3
5  10  8
5  6  8
6  11  8
9  15  8
9  16  8

$$$$
