10537661
  -OEChem-09292322522D

 35 36  0     1  0  0  0  0  0999 V2000
    5.1491   -2.0649    0.0000 O   0  0  0  0  0  0  0  0  0  0  0  0
    4.2724    1.4596    0.0000 O   0  0  0  0  0  0  0  0  0  0  0  0
    6.8811   -0.0649    0.0000 N   0  0  0  0  0  0  0  0  0  0  0  0
    2.5405    1.4796    0.0000 N   0  0  0  0  0  0  0  0  0  0  0  0
    6.0151   -0.5649    0.0000 C   0  0  2  0  0  0  0  0  0  0  0  0
    5.1491   -0.0649    0.0000 C   0  0  0  0  0  0  0  0  0  0  0  0
    6.0151   -1.5649    0.0000 C   0  0  0  0  0  0  0  0  0  0  0  0
    4.2830   -0.5649    0.0000 C   0  0  0  0  0  0  0  0  0  0  0  0
    7.7472   -0.5649    0.0000 C   0  0  0  0  0  0  0  0  0  0  0  0
    4.2830   -1.5649    0.0000 C   0  0  0  0  0  0  0  0  0  0  0  0
    3.3891   -0.0303    0.0000 C   0  0  0  0  0  0  0  0  0  0  0  0
    8.6132   -0.0649    0.0000 C   0  0  0  0  0  0  0  0  0  0  0  0
    7.7472   -1.5649    0.0000 C   0  0  0  0  0  0  0  0  0  0  0  0
    3.3891   -2.0996    0.0000 C   0  0  0  0  0  0  0  0  0  0  0  0
    2.4830   -0.5441    0.0000 C   0  0  0  0  0  0  0  0  0  0  0  0
    2.4830   -1.5858    0.0000 C   0  0  0  0  0  0  0  0  0  0  0  0
    3.4007    0.9697    0.0000 C   0  0  0  0  0  0  0  0  0  0  0  0
    6.5520   -0.8749    0.0000 H   0  0  0  0  0  0  0  0  0  0  0  0
    5.5476    0.4100    0.0000 H   0  0  0  0  0  0  0  0  0  0  0  0
    4.7505    0.4100    0.0000 H   0  0  0  0  0  0  0  0  0  0  0  0
    6.2272   -2.1476    0.0000 H   0  0  0  0  0  0  0  0  0  0  0  0
    6.6257   -1.4573    0.0000 H   0  0  0  0  0  0  0  0  0  0  0  0
    6.8811    0.5551    0.0000 H   0  0  0  0  0  0  0  0  0  0  0  0
    7.7472    0.0551    0.0000 H   0  0  0  0  0  0  0  0  0  0  0  0
    8.9232   -0.6019    0.0000 H   0  0  0  0  0  0  0  0  0  0  0  0
    9.1501    0.2451    0.0000 H   0  0  0  0  0  0  0  0  0  0  0  0
    8.3032    0.4720    0.0000 H   0  0  0  0  0  0  0  0  0  0  0  0
    7.1272   -1.5649    0.0000 H   0  0  0  0  0  0  0  0  0  0  0  0
    7.7472   -2.1849    0.0000 H   0  0  0  0  0  0  0  0  0  0  0  0
    8.3672   -1.5649    0.0000 H   0  0  0  0  0  0  0  0  0  0  0  0
    3.3963   -2.7196    0.0000 H   0  0  0  0  0  0  0  0  0  0  0  0
    1.9473   -0.2321    0.0000 H   0  0  0  0  0  0  0  0  0  0  0  0
    1.9473   -1.8978    0.0000 H   0  0  0  0  0  0  0  0  0  0  0  0
    2.5476    2.0996    0.0000 H   0  0  0  0  0  0  0  0  0  0  0  0
    2.0000    1.1759    0.0000 H   0  0  0  0  0  0  0  0  0  0  0  0
  1  7  1  0  0  0  0
  1 10  1  0  0  0  0
  2 17  2  0  0  0  0
  5  3  1  1  0  0  0
  3  9  1  0  0  0  0
  3 23  1  0  0  0  0
  4 17  1  0  0  0  0
  4 34  1  0  0  0  0
  4 35  1  0  0  0  0
  5  6  1  0  0  0  0
  5  7  1  0  0  0  0
  5 18  1  0  0  0  0
  6  8  1  0  0  0  0
  6 19  1  0  0  0  0
  6 20  1  0  0  0  0
  7 21  1  0  0  0  0
  7 22  1  0  0  0  0
  8 10  1  0  0  0  0
  8 11  2  0  0  0  0
  9 12  1  0  0  0  0
  9 13  1  0  0  0  0
  9 24  1  0  0  0  0
 10 14  2  0  0  0  0
 11 15  1  0  0  0  0
 11 17  1  0  0  0  0
 12 25  1  0  0  0  0
 12 26  1  0  0  0  0
 12 27  1  0  0  0  0
 13 28  1  0  0  0  0
 13 29  1  0  0  0  0
 13 30  1  0  0  0  0
 14 16  1  0  0  0  0
 14 31  1  0  0  0  0
 15 16  2  0  0  0  0
 15 32  1  0  0  0  0
 16 33  1  0  0  0  0
M  END
> <PUBCHEM_COMPOUND_CID>
10537661

> <PUBCHEM_COMPOUND_CANONICALIZED>
1

> <PUBCHEM_CACTVS_COMPLEXITY>
281

> <PUBCHEM_CACTVS_HBOND_ACCEPTOR>
3

> <PUBCHEM_CACTVS_HBOND_DONOR>
2

> <PUBCHEM_CACTVS_ROTATABLE_BOND>
3

> <PUBCHEM_CACTVS_SUBSKEYS>
AAADceBzMAAAAAAAAAAAAAAAAAAAAAAAAAA0QAAAAAAAAACRAAAAHgAQAAAADCzhmAYyBoLABACIAiFSEACCCAAkIAAIiIEODMgOJjKEtRuHOSDk0BGYqYe6ybCegAABAAAYAAAAAAIAADAAAAAAAAAAAA==

> <PUBCHEM_IUPAC_OPENEYE_NAME>
(3R)-3-(isopropylamino)chromane-5-carboxamide

> <PUBCHEM_IUPAC_CAS_NAME>
(3R)-3-(propan-2-ylamino)-3,4-dihydro-2H-1-benzopyran-5-carboxamide

> <PUBCHEM_IUPAC_NAME_MARKUP>
(3<I>R</I>)-3-(propan-2-ylamino)-3,4-dihydro-2<I>H</I>-chromene-5-carboxamide

> <PUBCHEM_IUPAC_NAME>
(3R)-3-(propan-2-ylamino)-3,4-dihydro-2H-chromene-5-carboxamide

> <PUBCHEM_IUPAC_SYSTEMATIC_NAME>
(3R)-3-(propan-2-ylamino)-3,4-dihydro-2H-chromene-5-carboxamide

> <PUBCHEM_IUPAC_TRADITIONAL_NAME>
(3R)-3-(isopropylamino)chroman-5-carboxamide

> <PUBCHEM_IUPAC_INCHI>
InChI=1S/C13H18N2O2/c1-8(2)15-9-6-11-10(13(14)16)4-3-5-12(11)17-7-9/h3-5,8-9,15H,6-7H2,1-2H3,(H2,14,16)/t9-/m1/s1

> <PUBCHEM_IUPAC_INCHIKEY>
FVAVMEQKDWJQEM-SECBINFHSA-N

> <PUBCHEM_XLOGP3_AA>
1.2

> <PUBCHEM_EXACT_MASS>
234.136827821

> <PUBCHEM_MOLECULAR_FORMULA>
C13H18N2O2

> <PUBCHEM_MOLECULAR_WEIGHT>
234.29

> <PUBCHEM_OPENEYE_CAN_SMILES>
CC(C)NC1CC2=C(C=CC=C2OC1)C(=O)N

> <PUBCHEM_OPENEYE_ISO_SMILES>
CC(C)N[C@@H]1CC2=C(C=CC=C2OC1)C(=O)N

> <PUBCHEM_CACTVS_TPSA>
64.4

> <PUBCHEM_MONOISOTOPIC_WEIGHT>
234.136827821

> <PUBCHEM_TOTAL_CHARGE>
0

> <PUBCHEM_HEAVY_ATOM_COUNT>
17

> <PUBCHEM_ATOM_DEF_STEREO_COUNT>
1

> <PUBCHEM_ATOM_UDEF_STEREO_COUNT>
0

> <PUBCHEM_BOND_DEF_STEREO_COUNT>
0

> <PUBCHEM_BOND_UDEF_STEREO_COUNT>
0

> <PUBCHEM_ISOTOPIC_ATOM_COUNT>
0

> <PUBCHEM_COMPONENT_COUNT>
1

> <PUBCHEM_CACTVS_TAUTO_COUNT>
-1

> <PUBCHEM_COORDINATE_TYPE>
1
5
255

> <PUBCHEM_BONDANNOTATIONS>
10  14  8
11  15  8
14  16  8
15  16  8
5  3  5
8  10  8
8  11  8

$$$$
