145993714
  -OEChem-09292322392D

 65 69  0     1  0  0  0  0  0999 V2000
    5.4921   -0.0368    0.0000 O   0  0  0  0  0  0  0  0  0  0  0  0
    2.0000    1.2420    0.0000 O   0  0  0  0  0  0  0  0  0  0  0  0
    5.5202    1.2420    0.0000 O   0  0  0  0  0  0  0  0  0  0  0  0
    5.4921   -2.0368    0.0000 N   0  0  0  0  0  0  0  0  0  0  0  0
    3.7601    0.9632    0.0000 N   0  0  0  0  0  0  0  0  0  0  0  0
    7.2242   -3.0368    0.0000 N   0  0  0  0  0  0  0  0  0  0  0  0
    4.2601    2.5021    0.0000 N   0  0  0  0  0  0  0  0  0  0  0  0
    6.3582   -5.5367    0.0000 N   0  0  0  0  0  0  0  0  0  0  0  0
    3.2601    2.5021    0.0000 C   0  0  3  0  0  0  0  0  0  0  0  0
    4.6261   -1.5368    0.0000 C   0  0  0  0  0  0  0  0  0  0  0  0
    4.6261   -0.5368    0.0000 C   0  0  3  0  0  0  0  0  0  0  0  0
    5.4921   -3.0368    0.0000 C   0  0  0  0  0  0  0  0  0  0  0  0
    6.3582   -1.5368    0.0000 C   0  0  0  0  0  0  0  0  0  0  0  0
    3.7601   -0.0368    0.0000 C   0  0  0  0  0  0  0  0  0  0  0  0
    6.3582   -3.5368    0.0000 C   0  0  0  0  0  0  0  0  0  0  0  0
    7.2242   -2.0368    0.0000 C   0  0  0  0  0  0  0  0  0  0  0  0
    2.9511    1.5510    0.0000 C   0  0  0  0  0  0  0  0  0  0  0  0
    3.2601    3.5021    0.0000 C   0  0  0  0  0  0  0  0  0  0  0  0
    4.5691    1.5510    0.0000 C   0  0  0  0  0  0  0  0  0  0  0  0
    2.3090    2.8111    0.0000 C   0  0  0  0  0  0  0  0  0  0  0  0
    8.0902   -3.5368    0.0000 C   0  0  0  0  0  0  0  0  0  0  0  0
    4.1261    4.0021    0.0000 C   0  0  0  0  0  0  0  0  0  0  0  0
    2.3940    4.0021    0.0000 C   0  0  0  0  0  0  0  0  0  0  0  0
    4.1261    5.0021    0.0000 C   0  0  0  0  0  0  0  0  0  0  0  0
    8.0902   -4.5367    0.0000 C   0  0  0  0  0  0  0  0  0  0  0  0
    8.9562   -3.0368    0.0000 C   0  0  0  0  0  0  0  0  0  0  0  0
    2.3940    5.0021    0.0000 C   0  0  0  0  0  0  0  0  0  0  0  0
    5.0200    3.4674    0.0000 C   0  0  0  0  0  0  0  0  0  0  0  0
    3.2601    5.5021    0.0000 C   0  0  0  0  0  0  0  0  0  0  0  0
    5.0200    5.5367    0.0000 C   0  0  0  0  0  0  0  0  0  0  0  0
    5.9261    3.9813    0.0000 C   0  0  0  0  0  0  0  0  0  0  0  0
    8.9562   -5.0367    0.0000 C   0  0  0  0  0  0  0  0  0  0  0  0
    9.8222   -3.5368    0.0000 C   0  0  0  0  0  0  0  0  0  0  0  0
    5.9261    5.0229    0.0000 C   0  0  0  0  0  0  0  0  0  0  0  0
    9.8222   -4.5367    0.0000 C   0  0  0  0  0  0  0  0  0  0  0  0
    7.2242   -5.0367    0.0000 C   0  0  0  0  0  0  0  0  0  0  0  0
    4.0155   -1.4291    0.0000 H   0  0  0  0  0  0  0  0  0  0  0  0
    4.4140   -2.1194    0.0000 H   0  0  0  0  0  0  0  0  0  0  0  0
    5.1630   -0.8468    0.0000 H   0  0  0  0  0  0  0  0  0  0  0  0
    4.8815   -2.9291    0.0000 H   0  0  0  0  0  0  0  0  0  0  0  0
    5.2801   -3.6194    0.0000 H   0  0  0  0  0  0  0  0  0  0  0  0
    6.7567   -1.0618    0.0000 H   0  0  0  0  0  0  0  0  0  0  0  0
    5.9596   -1.0618    0.0000 H   0  0  0  0  0  0  0  0  0  0  0  0
    3.1495    0.0709    0.0000 H   0  0  0  0  0  0  0  0  0  0  0  0
    3.5480   -0.6194    0.0000 H   0  0  0  0  0  0  0  0  0  0  0  0
    5.9596   -4.0117    0.0000 H   0  0  0  0  0  0  0  0  0  0  0  0
    6.7567   -4.0117    0.0000 H   0  0  0  0  0  0  0  0  0  0  0  0
    7.8348   -2.1444    0.0000 H   0  0  0  0  0  0  0  0  0  0  0  0
    7.4362   -1.4541    0.0000 H   0  0  0  0  0  0  0  0  0  0  0  0
    4.6245    3.0037    0.0000 H   0  0  0  0  0  0  0  0  0  0  0  0
    2.5006    3.4008    0.0000 H   0  0  0  0  0  0  0  0  0  0  0  0
    1.7194    3.0027    0.0000 H   0  0  0  0  0  0  0  0  0  0  0  0
    2.1174    2.2214    0.0000 H   0  0  0  0  0  0  0  0  0  0  0  0
    1.8571    3.6921    0.0000 H   0  0  0  0  0  0  0  0  0  0  0  0
    6.0291   -0.3468    0.0000 H   0  0  0  0  0  0  0  0  0  0  0  0
    8.9562   -2.4168    0.0000 H   0  0  0  0  0  0  0  0  0  0  0  0
    1.8571    5.3121    0.0000 H   0  0  0  0  0  0  0  0  0  0  0  0
    5.0129    2.8475    0.0000 H   0  0  0  0  0  0  0  0  0  0  0  0
    3.2601    6.1221    0.0000 H   0  0  0  0  0  0  0  0  0  0  0  0
    5.0129    6.1567    0.0000 H   0  0  0  0  0  0  0  0  0  0  0  0
    6.4618    3.6692    0.0000 H   0  0  0  0  0  0  0  0  0  0  0  0
    8.9562   -5.6568    0.0000 H   0  0  0  0  0  0  0  0  0  0  0  0
   10.3592   -3.2268    0.0000 H   0  0  0  0  0  0  0  0  0  0  0  0
    6.4618    5.3350    0.0000 H   0  0  0  0  0  0  0  0  0  0  0  0
   10.3592   -4.8468    0.0000 H   0  0  0  0  0  0  0  0  0  0  0  0
  1 11  1  0  0  0  0
  1 55  1  0  0  0  0
  2 17  2  0  0  0  0
  3 19  2  0  0  0  0
  4 10  1  0  0  0  0
  4 12  1  0  0  0  0
  4 13  1  0  0  0  0
  5 14  1  0  0  0  0
  5 17  1  0  0  0  0
  5 19  1  0  0  0  0
  6 15  1  0  0  0  0
  6 16  1  0  0  0  0
  6 21  1  0  0  0  0
  7  9  1  0  0  0  0
  7 19  1  0  0  0  0
  7 50  1  0  0  0  0
  8 36  3  0  0  0  0
  9 17  1  0  0  0  0
  9 18  1  0  0  0  0
  9 20  1  0  0  0  0
 10 11  1  0  0  0  0
 10 37  1  0  0  0  0
 10 38  1  0  0  0  0
 11 14  1  0  0  0  0
 11 39  1  0  0  0  0
 12 15  1  0  0  0  0
 12 40  1  0  0  0  0
 12 41  1  0  0  0  0
 13 16  1  0  0  0  0
 13 42  1  0  0  0  0
 13 43  1  0  0  0  0
 14 44  1  0  0  0  0
 14 45  1  0  0  0  0
 15 46  1  0  0  0  0
 15 47  1  0  0  0  0
 16 48  1  0  0  0  0
 16 49  1  0  0  0  0
 18 22  1  0  0  0  0
 18 23  2  0  0  0  0
 20 51  1  0  0  0  0
 20 52  1  0  0  0  0
 20 53  1  0  0  0  0
 21 25  1  0  0  0  0
 21 26  2  0  0  0  0
 22 24  1  0  0  0  0
 22 28  2  0  0  0  0
 23 27  1  0  0  0  0
 23 54  1  0  0  0  0
 24 29  1  0  0  0  0
 24 30  2  0  0  0  0
 25 32  2  0  0  0  0
 25 36  1  0  0  0  0
 26 33  1  0  0  0  0
 26 56  1  0  0  0  0
 27 29  2  0  0  0  0
 27 57  1  0  0  0  0
 28 31  1  0  0  0  0
 28 58  1  0  0  0  0
 29 59  1  0  0  0  0
 30 34  1  0  0  0  0
 30 60  1  0  0  0  0
 31 34  2  0  0  0  0
 31 61  1  0  0  0  0
 32 35  1  0  0  0  0
 32 62  1  0  0  0  0
 33 35  2  0  0  0  0
 33 63  1  0  0  0  0
 34 64  1  0  0  0  0
 35 65  1  0  0  0  0
M  END
> <PUBCHEM_COMPOUND_CID>
145993714

> <PUBCHEM_COMPOUND_CANONICALIZED>
1

> <PUBCHEM_CACTVS_COMPLEXITY>
865

> <PUBCHEM_CACTVS_HBOND_ACCEPTOR>
6

> <PUBCHEM_CACTVS_HBOND_DONOR>
2

> <PUBCHEM_CACTVS_ROTATABLE_BOND>
6

> <PUBCHEM_CACTVS_SUBSKEYS>
AAADceB7sAAAAAAAAAAAAAAAAAAAAWAAAAA8YMEAAAAAAADBVAAAHgAQCAAADJzhmAYzwMPAAgCYBiVSUACiAAAhAgAIiAGIZIiK8DLA1bGUIAholyLYyA8YiMCOgAACAAASAAAAAAQAACQAAAAAAAAAAA==

> <PUBCHEM_IUPAC_OPENEYE_NAME>
2-[4-[2-hydroxy-3-[4-methyl-4-(1-naphthyl)-2,5-dioxo-imidazolidin-1-yl]propyl]piperazin-1-yl]benzonitrile

> <PUBCHEM_IUPAC_CAS_NAME>
2-[4-[2-hydroxy-3-[4-methyl-4-(1-naphthalenyl)-2,5-dioxo-1-imidazolidinyl]propyl]-1-piperazinyl]benzonitrile

> <PUBCHEM_IUPAC_NAME_MARKUP>
2-[4-[2-hydroxy-3-(4-methyl-4-naphthalen-1-yl-2,5-dioxoimidazolidin-1-yl)propyl]piperazin-1-yl]benzonitrile

> <PUBCHEM_IUPAC_NAME>
2-[4-[2-hydroxy-3-(4-methyl-4-naphthalen-1-yl-2,5-dioxoimidazolidin-1-yl)propyl]piperazin-1-yl]benzonitrile

> <PUBCHEM_IUPAC_SYSTEMATIC_NAME>
2-[4-[3-[4-methyl-4-naphthalen-1-yl-2,5-bis(oxidanylidene)imidazolidin-1-yl]-2-oxidanyl-propyl]piperazin-1-yl]benzenecarbonitrile

> <PUBCHEM_IUPAC_TRADITIONAL_NAME>
2-[4-[3-[2,5-diketo-4-methyl-4-(1-naphthyl)imidazolidin-1-yl]-2-hydroxy-propyl]piperazino]benzonitrile

> <PUBCHEM_IUPAC_INCHI>
InChI=1S/C28H29N5O3/c1-28(24-11-6-9-20-7-2-4-10-23(20)24)26(35)33(27(36)30-28)19-22(34)18-31-13-15-32(16-14-31)25-12-5-3-8-21(25)17-29/h2-12,22,34H,13-16,18-19H2,1H3,(H,30,36)

> <PUBCHEM_IUPAC_INCHIKEY>
KAIYJBUQISWUCP-UHFFFAOYSA-N

> <PUBCHEM_XLOGP3_AA>
3

> <PUBCHEM_EXACT_MASS>
483.22703980

> <PUBCHEM_MOLECULAR_FORMULA>
C28H29N5O3

> <PUBCHEM_MOLECULAR_WEIGHT>
483.6

> <PUBCHEM_OPENEYE_CAN_SMILES>
CC1(C(=O)N(C(=O)N1)CC(CN2CCN(CC2)C3=CC=CC=C3C#N)O)C4=CC=CC5=CC=CC=C54

> <PUBCHEM_OPENEYE_ISO_SMILES>
CC1(C(=O)N(C(=O)N1)CC(CN2CCN(CC2)C3=CC=CC=C3C#N)O)C4=CC=CC5=CC=CC=C54

> <PUBCHEM_CACTVS_TPSA>
99.9

> <PUBCHEM_MONOISOTOPIC_WEIGHT>
483.22703980

> <PUBCHEM_TOTAL_CHARGE>
0

> <PUBCHEM_HEAVY_ATOM_COUNT>
36

> <PUBCHEM_ATOM_DEF_STEREO_COUNT>
0

> <PUBCHEM_ATOM_UDEF_STEREO_COUNT>
2

> <PUBCHEM_BOND_DEF_STEREO_COUNT>
0

> <PUBCHEM_BOND_UDEF_STEREO_COUNT>
0

> <PUBCHEM_ISOTOPIC_ATOM_COUNT>
0

> <PUBCHEM_COMPONENT_COUNT>
1

> <PUBCHEM_CACTVS_TAUTO_COUNT>
-1

> <PUBCHEM_COORDINATE_TYPE>
1
5
255

> <PUBCHEM_BONDANNOTATIONS>
11  1  3
18  22  8
18  23  8
21  25  8
21  26  8
22  24  8
22  28  8
23  27  8
24  29  8
24  30  8
25  32  8
26  33  8
27  29  8
28  31  8
30  34  8
31  34  8
32  35  8
33  35  8
9  20  3

$$$$
