11567928
  -OEChem-09292322472D

 61 64  0     0  0  0  0  0  0999 V2000
   16.7904    0.5173    0.0000 O   0  0  0  0  0  0  0  0  0  0  0  0
    6.3981    0.5173    0.0000 O   0  0  0  0  0  0  0  0  0  0  0  0
   11.5942   -0.4827    0.0000 N   0  0  0  0  0  0  0  0  0  0  0  0
   13.3263    0.5173    0.0000 N   0  0  0  0  0  0  0  0  0  0  0  0
    7.2641   -0.9827    0.0000 N   0  0  0  0  0  0  0  0  0  0  0  0
    5.5321   -1.9827    0.0000 N   0  0  0  0  0  0  0  0  0  0  0  0
   11.5942    0.5173    0.0000 C   0  0  0  0  0  0  0  0  0  0  0  0
   12.4603   -0.9827    0.0000 C   0  0  0  0  0  0  0  0  0  0  0  0
   12.4603    1.0173    0.0000 C   0  0  0  0  0  0  0  0  0  0  0  0
   13.3263   -0.4827    0.0000 C   0  0  0  0  0  0  0  0  0  0  0  0
   10.7282   -0.9827    0.0000 C   0  0  0  0  0  0  0  0  0  0  0  0
    9.8622   -0.4827    0.0000 C   0  0  0  0  0  0  0  0  0  0  0  0
   14.1923    1.0173    0.0000 C   0  0  0  0  0  0  0  0  0  0  0  0
    8.9962   -0.9827    0.0000 C   0  0  0  0  0  0  0  0  0  0  0  0
    8.1301   -0.4827    0.0000 C   0  0  0  0  0  0  0  0  0  0  0  0
   15.0583    0.5173    0.0000 C   0  0  0  0  0  0  0  0  0  0  0  0
   14.1923    2.0173    0.0000 C   0  0  0  0  0  0  0  0  0  0  0  0
   15.9244    1.0173    0.0000 C   0  0  0  0  0  0  0  0  0  0  0  0
   15.0583    2.5173    0.0000 C   0  0  0  0  0  0  0  0  0  0  0  0
   15.9244    2.0173    0.0000 C   0  0  0  0  0  0  0  0  0  0  0  0
    6.3981   -0.4827    0.0000 C   0  0  0  0  0  0  0  0  0  0  0  0
    5.5321   -0.9827    0.0000 C   0  0  0  0  0  0  0  0  0  0  0  0
    4.6660   -0.4827    0.0000 C   0  0  0  0  0  0  0  0  0  0  0  0
    3.8000   -0.9827    0.0000 C   0  0  0  0  0  0  0  0  0  0  0  0
   17.6564    1.0173    0.0000 C   0  0  0  0  0  0  0  0  0  0  0  0
    3.8000   -1.9827    0.0000 C   0  0  0  0  0  0  0  0  0  0  0  0
    4.6660   -2.4827    0.0000 C   0  0  0  0  0  0  0  0  0  0  0  0
    2.9061   -0.4480    0.0000 C   0  0  0  0  0  0  0  0  0  0  0  0
    2.9061   -2.5173    0.0000 C   0  0  0  0  0  0  0  0  0  0  0  0
    2.0000   -0.9619    0.0000 C   0  0  0  0  0  0  0  0  0  0  0  0
    2.0000   -2.0035    0.0000 C   0  0  0  0  0  0  0  0  0  0  0  0
   11.3822    1.0999    0.0000 H   0  0  0  0  0  0  0  0  0  0  0  0
   10.9837    0.4097    0.0000 H   0  0  0  0  0  0  0  0  0  0  0  0
   12.0617   -1.4576    0.0000 H   0  0  0  0  0  0  0  0  0  0  0  0
   12.8588   -1.4576    0.0000 H   0  0  0  0  0  0  0  0  0  0  0  0
   12.8588    1.4923    0.0000 H   0  0  0  0  0  0  0  0  0  0  0  0
   12.0617    1.4923    0.0000 H   0  0  0  0  0  0  0  0  0  0  0  0
   13.5383   -1.0653    0.0000 H   0  0  0  0  0  0  0  0  0  0  0  0
   13.9369   -0.3750    0.0000 H   0  0  0  0  0  0  0  0  0  0  0  0
   10.3297   -1.4576    0.0000 H   0  0  0  0  0  0  0  0  0  0  0  0
   11.1267   -1.4576    0.0000 H   0  0  0  0  0  0  0  0  0  0  0  0
   10.2607   -0.0077    0.0000 H   0  0  0  0  0  0  0  0  0  0  0  0
    9.4637   -0.0077    0.0000 H   0  0  0  0  0  0  0  0  0  0  0  0
    8.5976   -1.4576    0.0000 H   0  0  0  0  0  0  0  0  0  0  0  0
    9.3947   -1.4576    0.0000 H   0  0  0  0  0  0  0  0  0  0  0  0
    8.5287   -0.0077    0.0000 H   0  0  0  0  0  0  0  0  0  0  0  0
    7.7316   -0.0077    0.0000 H   0  0  0  0  0  0  0  0  0  0  0  0
   15.0583   -0.1027    0.0000 H   0  0  0  0  0  0  0  0  0  0  0  0
   13.6554    2.3273    0.0000 H   0  0  0  0  0  0  0  0  0  0  0  0
    7.2641   -1.6027    0.0000 H   0  0  0  0  0  0  0  0  0  0  0  0
   15.0583    3.1373    0.0000 H   0  0  0  0  0  0  0  0  0  0  0  0
   16.4613    2.3273    0.0000 H   0  0  0  0  0  0  0  0  0  0  0  0
    4.6660    0.1373    0.0000 H   0  0  0  0  0  0  0  0  0  0  0  0
   17.9664    0.4804    0.0000 H   0  0  0  0  0  0  0  0  0  0  0  0
   18.1934    1.3273    0.0000 H   0  0  0  0  0  0  0  0  0  0  0  0
   17.3464    1.5543    0.0000 H   0  0  0  0  0  0  0  0  0  0  0  0
    4.6660   -3.1027    0.0000 H   0  0  0  0  0  0  0  0  0  0  0  0
    2.9132    0.1720    0.0000 H   0  0  0  0  0  0  0  0  0  0  0  0
    2.9132   -3.1373    0.0000 H   0  0  0  0  0  0  0  0  0  0  0  0
    1.4643   -0.6498    0.0000 H   0  0  0  0  0  0  0  0  0  0  0  0
    1.4643   -2.3156    0.0000 H   0  0  0  0  0  0  0  0  0  0  0  0
  1 18  1  0  0  0  0
  1 25  1  0  0  0  0
  2 21  2  0  0  0  0
  3  7  1  0  0  0  0
  3  8  1  0  0  0  0
  3 11  1  0  0  0  0
  4  9  1  0  0  0  0
  4 10  1  0  0  0  0
  4 13  1  0  0  0  0
  5 15  1  0  0  0  0
  5 21  1  0  0  0  0
  5 50  1  0  0  0  0
  6 22  1  0  0  0  0
  6 27  2  0  0  0  0
  7  9  1  0  0  0  0
  7 32  1  0  0  0  0
  7 33  1  0  0  0  0
  8 10  1  0  0  0  0
  8 34  1  0  0  0  0
  8 35  1  0  0  0  0
  9 36  1  0  0  0  0
  9 37  1  0  0  0  0
 10 38  1  0  0  0  0
 10 39  1  0  0  0  0
 11 12  1  0  0  0  0
 11 40  1  0  0  0  0
 11 41  1  0  0  0  0
 12 14  1  0  0  0  0
 12 42  1  0  0  0  0
 12 43  1  0  0  0  0
 13 16  2  0  0  0  0
 13 17  1  0  0  0  0
 14 15  1  0  0  0  0
 14 44  1  0  0  0  0
 14 45  1  0  0  0  0
 15 46  1  0  0  0  0
 15 47  1  0  0  0  0
 16 18  1  0  0  0  0
 16 48  1  0  0  0  0
 17 19  2  0  0  0  0
 17 49  1  0  0  0  0
 18 20  2  0  0  0  0
 19 20  1  0  0  0  0
 19 51  1  0  0  0  0
 20 52  1  0  0  0  0
 21 22  1  0  0  0  0
 22 23  2  0  0  0  0
 23 24  1  0  0  0  0
 23 53  1  0  0  0  0
 24 26  1  0  0  0  0
 24 28  2  0  0  0  0
 25 54  1  0  0  0  0
 25 55  1  0  0  0  0
 25 56  1  0  0  0  0
 26 27  1  0  0  0  0
 26 29  2  0  0  0  0
 27 57  1  0  0  0  0
 28 30  1  0  0  0  0
 28 58  1  0  0  0  0
 29 31  1  0  0  0  0
 29 59  1  0  0  0  0
 30 31  2  0  0  0  0
 30 60  1  0  0  0  0
 31 61  1  0  0  0  0
M  END
> <PUBCHEM_COMPOUND_CID>
11567928

> <PUBCHEM_COMPOUND_CANONICALIZED>
1

> <PUBCHEM_CACTVS_COMPLEXITY>
552

> <PUBCHEM_CACTVS_HBOND_ACCEPTOR>
5

> <PUBCHEM_CACTVS_HBOND_DONOR>
1

> <PUBCHEM_CACTVS_ROTATABLE_BOND>
8

> <PUBCHEM_CACTVS_SUBSKEYS>
AAADceB7sAAAAAAAAAAAAAAAAAAAAAAAAAA8eIEAAAAAAACx9AAAHgAQAAAADAzBngY+xtPIFACoAzV3VACCiCA3IiAI2KG+bNgMZvLEtbuUMShm1hnI6YeY2IOOgAAAAgAQAAAAAAAEACAAAAAAAAAAAA==

> <PUBCHEM_IUPAC_OPENEYE_NAME>
N-[4-[4-(3-methoxyphenyl)piperazin-1-yl]butyl]isoquinoline-3-carboxamide

> <PUBCHEM_IUPAC_CAS_NAME>
N-[4-[4-(3-methoxyphenyl)-1-piperazinyl]butyl]-3-isoquinolinecarboxamide

> <PUBCHEM_IUPAC_NAME_MARKUP>
<I>N</I>-[4-[4-(3-methoxyphenyl)piperazin-1-yl]butyl]isoquinoline-3-carboxamide

> <PUBCHEM_IUPAC_NAME>
N-[4-[4-(3-methoxyphenyl)piperazin-1-yl]butyl]isoquinoline-3-carboxamide

> <PUBCHEM_IUPAC_SYSTEMATIC_NAME>
N-[4-[4-(3-methoxyphenyl)piperazin-1-yl]butyl]isoquinoline-3-carboxamide

> <PUBCHEM_IUPAC_TRADITIONAL_NAME>
N-[4-[4-(3-methoxyphenyl)piperazino]butyl]isoquinoline-3-carboxamide

> <PUBCHEM_IUPAC_INCHI>
InChI=1S/C25H30N4O2/c1-31-23-10-6-9-22(18-23)29-15-13-28(14-16-29)12-5-4-11-26-25(30)24-17-20-7-2-3-8-21(20)19-27-24/h2-3,6-10,17-19H,4-5,11-16H2,1H3,(H,26,30)

> <PUBCHEM_IUPAC_INCHIKEY>
VJMYWLHHQXMODZ-UHFFFAOYSA-N

> <PUBCHEM_XLOGP3_AA>
4

> <PUBCHEM_EXACT_MASS>
418.23687621

> <PUBCHEM_MOLECULAR_FORMULA>
C25H30N4O2

> <PUBCHEM_MOLECULAR_WEIGHT>
418.5

> <PUBCHEM_OPENEYE_CAN_SMILES>
COC1=CC=CC(=C1)N2CCN(CC2)CCCCNC(=O)C3=CC4=CC=CC=C4C=N3

> <PUBCHEM_OPENEYE_ISO_SMILES>
COC1=CC=CC(=C1)N2CCN(CC2)CCCCNC(=O)C3=CC4=CC=CC=C4C=N3

> <PUBCHEM_CACTVS_TPSA>
57.7

> <PUBCHEM_MONOISOTOPIC_WEIGHT>
418.23687621

> <PUBCHEM_TOTAL_CHARGE>
0

> <PUBCHEM_HEAVY_ATOM_COUNT>
31

> <PUBCHEM_ATOM_DEF_STEREO_COUNT>
0

> <PUBCHEM_ATOM_UDEF_STEREO_COUNT>
0

> <PUBCHEM_BOND_DEF_STEREO_COUNT>
0

> <PUBCHEM_BOND_UDEF_STEREO_COUNT>
0

> <PUBCHEM_ISOTOPIC_ATOM_COUNT>
0

> <PUBCHEM_COMPONENT_COUNT>
1

> <PUBCHEM_CACTVS_TAUTO_COUNT>
-1

> <PUBCHEM_COORDINATE_TYPE>
1
5
255

> <PUBCHEM_BONDANNOTATIONS>
13  16  8
13  17  8
16  18  8
17  19  8
18  20  8
19  20  8
22  23  8
23  24  8
24  26  8
24  28  8
26  27  8
26  29  8
28  30  8
29  31  8
30  31  8
6  22  8
6  27  8

$$$$
