44387746
  -OEChem-09292322522D

 46 48  0     0  0  0  0  0  0999 V2000
    4.2320    2.8840    0.0000 S   0  0  0  0  0  0  0  0  0  0  0  0
    2.8660    2.5180    0.0000 F   0  0  0  0  0  0  0  0  0  0  0  0
    4.5981   -2.4820    0.0000 F   0  0  0  0  0  0  0  0  0  0  0  0
    2.8660   -5.4820    0.0000 F   0  0  0  0  0  0  0  0  0  0  0  0
    5.0981    2.3840    0.0000 O   0  0  0  0  0  0  0  0  0  0  0  0
    3.3660    3.3840    0.0000 O   0  0  0  0  0  0  0  0  0  0  0  0
    3.7320    0.0179    0.0000 N   0  0  0  0  0  0  0  0  0  0  0  0
    3.7320    2.0180    0.0000 C   0  0  0  0  0  0  0  0  0  0  0  0
    2.8660    1.5180    0.0000 C   0  0  0  0  0  0  0  0  0  0  0  0
    4.5981    1.5180    0.0000 C   0  0  0  0  0  0  0  0  0  0  0  0
    2.8660    0.5179    0.0000 C   0  0  0  0  0  0  0  0  0  0  0  0
    4.5981    0.5179    0.0000 C   0  0  0  0  0  0  0  0  0  0  0  0
    3.7320   -0.9821    0.0000 C   0  0  0  0  0  0  0  0  0  0  0  0
    4.7320    3.7500    0.0000 C   0  0  0  0  0  0  0  0  0  0  0  0
    2.8660   -1.4820    0.0000 C   0  0  0  0  0  0  0  0  0  0  0  0
    2.8660   -2.4820    0.0000 C   0  0  0  0  0  0  0  0  0  0  0  0
    5.7320    3.7500    0.0000 C   0  0  0  0  0  0  0  0  0  0  0  0
    4.2320    4.6160    0.0000 C   0  0  0  0  0  0  0  0  0  0  0  0
    6.2320    4.6160    0.0000 C   0  0  0  0  0  0  0  0  0  0  0  0
    4.7320    5.4820    0.0000 C   0  0  0  0  0  0  0  0  0  0  0  0
    3.7320   -2.9820    0.0000 C   0  0  0  0  0  0  0  0  0  0  0  0
    2.0000   -2.9820    0.0000 C   0  0  0  0  0  0  0  0  0  0  0  0
    5.7320    5.4820    0.0000 C   0  0  0  0  0  0  0  0  0  0  0  0
    3.7320   -3.9820    0.0000 C   0  0  0  0  0  0  0  0  0  0  0  0
    2.0000   -3.9820    0.0000 C   0  0  0  0  0  0  0  0  0  0  0  0
    2.8660   -4.4820    0.0000 C   0  0  0  0  0  0  0  0  0  0  0  0
    2.6540    2.1006    0.0000 H   0  0  0  0  0  0  0  0  0  0  0  0
    2.2554    1.4103    0.0000 H   0  0  0  0  0  0  0  0  0  0  0  0
    5.2087    1.4103    0.0000 H   0  0  0  0  0  0  0  0  0  0  0  0
    4.8101    2.1006    0.0000 H   0  0  0  0  0  0  0  0  0  0  0  0
    2.2554    0.6256    0.0000 H   0  0  0  0  0  0  0  0  0  0  0  0
    2.6540   -0.0647    0.0000 H   0  0  0  0  0  0  0  0  0  0  0  0
    4.8101   -0.0647    0.0000 H   0  0  0  0  0  0  0  0  0  0  0  0
    5.2087    0.6256    0.0000 H   0  0  0  0  0  0  0  0  0  0  0  0
    3.9441   -1.5647    0.0000 H   0  0  0  0  0  0  0  0  0  0  0  0
    4.3426   -0.8744    0.0000 H   0  0  0  0  0  0  0  0  0  0  0  0
    2.6540   -0.8994    0.0000 H   0  0  0  0  0  0  0  0  0  0  0  0
    2.2554   -1.5897    0.0000 H   0  0  0  0  0  0  0  0  0  0  0  0
    6.0420    3.2131    0.0000 H   0  0  0  0  0  0  0  0  0  0  0  0
    3.6120    4.6160    0.0000 H   0  0  0  0  0  0  0  0  0  0  0  0
    6.8520    4.6160    0.0000 H   0  0  0  0  0  0  0  0  0  0  0  0
    4.4220    6.0190    0.0000 H   0  0  0  0  0  0  0  0  0  0  0  0
    1.4631   -2.6720    0.0000 H   0  0  0  0  0  0  0  0  0  0  0  0
    6.0420    6.0190    0.0000 H   0  0  0  0  0  0  0  0  0  0  0  0
    4.2690   -4.2920    0.0000 H   0  0  0  0  0  0  0  0  0  0  0  0
    1.4631   -4.2920    0.0000 H   0  0  0  0  0  0  0  0  0  0  0  0
  1  5  2  0  0  0  0
  1  6  2  0  0  0  0
  1  8  1  0  0  0  0
  1 14  1  0  0  0  0
  2  8  1  0  0  0  0
  3 21  1  0  0  0  0
  4 26  1  0  0  0  0
  7 11  1  0  0  0  0
  7 12  1  0  0  0  0
  7 13  1  0  0  0  0
  8  9  1  0  0  0  0
  8 10  1  0  0  0  0
  9 11  1  0  0  0  0
  9 27  1  0  0  0  0
  9 28  1  0  0  0  0
 10 12  1  0  0  0  0
 10 29  1  0  0  0  0
 10 30  1  0  0  0  0
 11 31  1  0  0  0  0
 11 32  1  0  0  0  0
 12 33  1  0  0  0  0
 12 34  1  0  0  0  0
 13 15  1  0  0  0  0
 13 35  1  0  0  0  0
 13 36  1  0  0  0  0
 14 17  2  0  0  0  0
 14 18  1  0  0  0  0
 15 16  1  0  0  0  0
 15 37  1  0  0  0  0
 15 38  1  0  0  0  0
 16 21  2  0  0  0  0
 16 22  1  0  0  0  0
 17 19  1  0  0  0  0
 17 39  1  0  0  0  0
 18 20  2  0  0  0  0
 18 40  1  0  0  0  0
 19 23  2  0  0  0  0
 19 41  1  0  0  0  0
 20 23  1  0  0  0  0
 20 42  1  0  0  0  0
 21 24  1  0  0  0  0
 22 25  2  0  0  0  0
 22 43  1  0  0  0  0
 23 44  1  0  0  0  0
 24 26  2  0  0  0  0
 24 45  1  0  0  0  0
 25 26  1  0  0  0  0
 25 46  1  0  0  0  0
M  END
> <PUBCHEM_COMPOUND_CID>
44387746

> <PUBCHEM_COMPOUND_CANONICALIZED>
1

> <PUBCHEM_CACTVS_COMPLEXITY>
552

> <PUBCHEM_CACTVS_HBOND_ACCEPTOR>
6

> <PUBCHEM_CACTVS_HBOND_DONOR>
0

> <PUBCHEM_CACTVS_ROTATABLE_BOND>
5

> <PUBCHEM_CACTVS_SUBSKEYS>
AAADceB6MYBAAAAAAAAAAAAAAAAAAAAAAAA8YIAAAAAAAAABQAAAHQQAAAAADADBWAwwAYMAAAqAAiBCAHBCAAAgCBAIiBgIAIgIICKgkRGEIAAggACoiAcQgIAOAAAAAAAAAAAAAAAAAAAAAAAAAAAAAA==

> <PUBCHEM_IUPAC_OPENEYE_NAME>
4-(benzenesulfonyl)-1-[2-(2,4-difluorophenyl)ethyl]-4-fluoro-piperidine

> <PUBCHEM_IUPAC_CAS_NAME>
4-(benzenesulfonyl)-1-[2-(2,4-difluorophenyl)ethyl]-4-fluoropiperidine

> <PUBCHEM_IUPAC_NAME_MARKUP>
4-(benzenesulfonyl)-1-[2-(2,4-difluorophenyl)ethyl]-4-fluoropiperidine

> <PUBCHEM_IUPAC_NAME>
4-(benzenesulfonyl)-1-[2-(2,4-difluorophenyl)ethyl]-4-fluoropiperidine

> <PUBCHEM_IUPAC_SYSTEMATIC_NAME>
1-[2-[2,4-bis(fluoranyl)phenyl]ethyl]-4-fluoranyl-4-(phenylsulfonyl)piperidine

> <PUBCHEM_IUPAC_TRADITIONAL_NAME>
4-besyl-1-[2-(2,4-difluorophenyl)ethyl]-4-fluoro-piperidine

> <PUBCHEM_IUPAC_INCHI>
InChI=1S/C19H20F3NO2S/c20-16-7-6-15(18(21)14-16)8-11-23-12-9-19(22,10-13-23)26(24,25)17-4-2-1-3-5-17/h1-7,14H,8-13H2

> <PUBCHEM_IUPAC_INCHIKEY>
ADVRGUCYVUJICT-UHFFFAOYSA-N

> <PUBCHEM_XLOGP3_AA>
4.2

> <PUBCHEM_EXACT_MASS>
383.11668454

> <PUBCHEM_MOLECULAR_FORMULA>
C19H20F3NO2S

> <PUBCHEM_MOLECULAR_WEIGHT>
383.4

> <PUBCHEM_OPENEYE_CAN_SMILES>
C1CN(CCC1(F)S(=O)(=O)C2=CC=CC=C2)CCC3=C(C=C(C=C3)F)F

> <PUBCHEM_OPENEYE_ISO_SMILES>
C1CN(CCC1(F)S(=O)(=O)C2=CC=CC=C2)CCC3=C(C=C(C=C3)F)F

> <PUBCHEM_CACTVS_TPSA>
45.8

> <PUBCHEM_MONOISOTOPIC_WEIGHT>
383.11668454

> <PUBCHEM_TOTAL_CHARGE>
0

> <PUBCHEM_HEAVY_ATOM_COUNT>
26

> <PUBCHEM_ATOM_DEF_STEREO_COUNT>
0

> <PUBCHEM_ATOM_UDEF_STEREO_COUNT>
0

> <PUBCHEM_BOND_DEF_STEREO_COUNT>
0

> <PUBCHEM_BOND_UDEF_STEREO_COUNT>
0

> <PUBCHEM_ISOTOPIC_ATOM_COUNT>
0

> <PUBCHEM_COMPONENT_COUNT>
1

> <PUBCHEM_CACTVS_TAUTO_COUNT>
-1

> <PUBCHEM_COORDINATE_TYPE>
1
5
255

> <PUBCHEM_BONDANNOTATIONS>
14  17  8
14  18  8
16  21  8
16  22  8
17  19  8
18  20  8
19  23  8
20  23  8
21  24  8
22  25  8
24  26  8
25  26  8

$$$$
