17895586
  -OEChem-09292322222D

 71 74  0     1  0  0  0  0  0999 V2000
    3.7320    1.5148    0.0000 S   0  0  0  0  0  0  0  0  0  0  0  0
    2.0000    2.5148    0.0000 F   0  0  0  0  0  0  0  0  0  0  0  0
    2.3660    1.1487    0.0000 F   0  0  0  0  0  0  0  0  0  0  0  0
    3.3660    2.8808    0.0000 F   0  0  0  0  0  0  0  0  0  0  0  0
    4.5981    1.0148    0.0000 O   0  0  0  0  0  0  0  0  0  0  0  0
   14.1961    2.4739    0.0000 O   0  0  0  0  0  0  0  0  0  0  0  0
    3.2320    0.6487    0.0000 O   0  0  0  0  0  0  0  0  0  0  0  0
    4.2320    2.3808    0.0000 O   0  0  0  0  0  0  0  0  0  0  0  0
   20.2371   -3.0494    0.0000 O   0  0  0  0  0  0  0  0  0  0  0  0
    8.9962    1.4939    0.0000 N   0  0  3  0  0  0  0  0  0  0  0  0
   13.3243    0.9773    0.0000 N   0  0  0  0  0  0  0  0  0  0  0  0
   21.1089   -1.5528    0.0000 N   0  0  0  0  0  0  0  0  0  0  0  0
    8.9962    2.5356    0.0000 C   0  0  0  0  0  0  0  0  0  0  0  0
    8.0901    0.9801    0.0000 C   0  0  0  0  0  0  0  0  0  0  0  0
    8.0901    3.0494    0.0000 C   0  0  0  0  0  0  0  0  0  0  0  0
    9.8602    0.9906    0.0000 C   0  0  0  0  0  0  0  0  0  0  0  0
    7.1962    1.5148    0.0000 C   0  0  0  0  0  0  0  0  0  0  0  0
    7.1962    2.5148    0.0000 C   0  0  0  0  0  0  0  0  0  0  0  0
   10.7282    1.4873    0.0000 C   0  0  0  0  0  0  0  0  0  0  0  0
   11.5923    0.9839    0.0000 C   0  0  0  0  0  0  0  0  0  0  0  0
    6.3301    1.0148    0.0000 C   0  0  0  0  0  0  0  0  0  0  0  0
    6.3301    3.0148    0.0000 C   0  0  0  0  0  0  0  0  0  0  0  0
    5.4641    1.5148    0.0000 C   0  0  0  0  0  0  0  0  0  0  0  0
   12.4602    1.4806    0.0000 C   0  0  0  0  0  0  0  0  0  0  0  0
    5.4641    2.5148    0.0000 C   0  0  0  0  0  0  0  0  0  0  0  0
   14.1923    1.4739    0.0000 C   0  0  0  0  0  0  0  0  0  0  0  0
   15.0564    0.9706    0.0000 C   0  0  0  0  0  0  0  0  0  0  0  0
    2.8660    2.0148    0.0000 C   0  0  0  0  0  0  0  0  0  0  0  0
   15.9243    1.4672    0.0000 C   0  0  0  0  0  0  0  0  0  0  0  0
   15.0525   -0.0294    0.0000 C   0  0  0  0  0  0  0  0  0  0  0  0
   16.7845   -0.0361    0.0000 C   0  0  0  0  0  0  0  0  0  0  0  0
   16.7884    0.9639    0.0000 C   0  0  0  0  0  0  0  0  0  0  0  0
   15.9166   -0.5327    0.0000 C   0  0  0  0  0  0  0  0  0  0  0  0
   17.6486   -0.5394    0.0000 C   0  0  0  0  0  0  0  0  0  0  0  0
   18.5166   -0.0428    0.0000 C   0  0  0  0  0  0  0  0  0  0  0  0
   17.6448   -1.5394    0.0000 C   0  0  0  0  0  0  0  0  0  0  0  0
   19.3768   -1.5461    0.0000 C   0  0  0  0  0  0  0  0  0  0  0  0
   19.3807   -0.5461    0.0000 C   0  0  0  0  0  0  0  0  0  0  0  0
   18.5089   -2.0428    0.0000 C   0  0  0  0  0  0  0  0  0  0  0  0
   20.2409   -2.0494    0.0000 C   0  0  0  0  0  0  0  0  0  0  0  0
   21.9730   -2.0561    0.0000 C   0  0  0  0  0  0  0  0  0  0  0  0
    9.6070    2.4295    0.0000 H   0  0  0  0  0  0  0  0  0  0  0  0
    9.2052    3.1193    0.0000 H   0  0  0  0  0  0  0  0  0  0  0  0
    7.6855    0.5103    0.0000 H   0  0  0  0  0  0  0  0  0  0  0  0
    8.4837    0.5011    0.0000 H   0  0  0  0  0  0  0  0  0  0  0  0
    8.4837    3.5284    0.0000 H   0  0  0  0  0  0  0  0  0  0  0  0
    7.6855    3.5192    0.0000 H   0  0  0  0  0  0  0  0  0  0  0  0
    9.4599    0.5172    0.0000 H   0  0  0  0  0  0  0  0  0  0  0  0
   10.2569    0.5141    0.0000 H   0  0  0  0  0  0  0  0  0  0  0  0
   11.1286    1.9607    0.0000 H   0  0  0  0  0  0  0  0  0  0  0  0
   10.3315    1.9638    0.0000 H   0  0  0  0  0  0  0  0  0  0  0  0
   11.1919    0.5105    0.0000 H   0  0  0  0  0  0  0  0  0  0  0  0
   11.9890    0.5075    0.0000 H   0  0  0  0  0  0  0  0  0  0  0  0
    6.3301    0.3948    0.0000 H   0  0  0  0  0  0  0  0  0  0  0  0
    6.3301    3.6348    0.0000 H   0  0  0  0  0  0  0  0  0  0  0  0
   12.8606    1.9540    0.0000 H   0  0  0  0  0  0  0  0  0  0  0  0
   12.0635    1.9571    0.0000 H   0  0  0  0  0  0  0  0  0  0  0  0
    4.9272    2.8248    0.0000 H   0  0  0  0  0  0  0  0  0  0  0  0
   13.3219    0.3573    0.0000 H   0  0  0  0  0  0  0  0  0  0  0  0
   15.9267    2.0872    0.0000 H   0  0  0  0  0  0  0  0  0  0  0  0
   14.5144   -0.3373    0.0000 H   0  0  0  0  0  0  0  0  0  0  0  0
   17.3265    1.2718    0.0000 H   0  0  0  0  0  0  0  0  0  0  0  0
   15.9142   -1.1527    0.0000 H   0  0  0  0  0  0  0  0  0  0  0  0
   18.5190    0.5772    0.0000 H   0  0  0  0  0  0  0  0  0  0  0  0
   17.1067   -1.8473    0.0000 H   0  0  0  0  0  0  0  0  0  0  0  0
   19.9188   -0.2382    0.0000 H   0  0  0  0  0  0  0  0  0  0  0  0
   18.5065   -2.6628    0.0000 H   0  0  0  0  0  0  0  0  0  0  0  0
   21.1113   -0.9328    0.0000 H   0  0  0  0  0  0  0  0  0  0  0  0
   21.6609   -2.5918    0.0000 H   0  0  0  0  0  0  0  0  0  0  0  0
   22.5087   -2.3682    0.0000 H   0  0  0  0  0  0  0  0  0  0  0  0
   22.2850   -1.5204    0.0000 H   0  0  0  0  0  0  0  0  0  0  0  0
  1  5  1  0  0  0  0
  1  7  2  0  0  0  0
  1  8  2  0  0  0  0
  1 28  1  0  0  0  0
  2 28  1  0  0  0  0
  3 28  1  0  0  0  0
  4 28  1  0  0  0  0
  5 23  1  0  0  0  0
  6 26  2  0  0  0  0
  9 40  2  0  0  0  0
 10 13  1  0  0  0  0
 10 14  1  0  0  0  0
 10 16  1  0  0  0  0
 11 24  1  0  0  0  0
 11 26  1  0  0  0  0
 11 59  1  0  0  0  0
 12 40  1  0  0  0  0
 12 41  1  0  0  0  0
 12 68  1  0  0  0  0
 13 15  1  0  0  0  0
 13 42  1  0  0  0  0
 13 43  1  0  0  0  0
 14 17  1  0  0  0  0
 14 44  1  0  0  0  0
 14 45  1  0  0  0  0
 15 18  1  0  0  0  0
 15 46  1  0  0  0  0
 15 47  1  0  0  0  0
 16 19  1  0  0  0  0
 16 48  1  0  0  0  0
 16 49  1  0  0  0  0
 17 18  2  0  0  0  0
 17 21  1  0  0  0  0
 18 22  1  0  0  0  0
 19 20  1  0  0  0  0
 19 50  1  0  0  0  0
 19 51  1  0  0  0  0
 20 24  1  0  0  0  0
 20 52  1  0  0  0  0
 20 53  1  0  0  0  0
 21 23  2  0  0  0  0
 21 54  1  0  0  0  0
 22 25  2  0  0  0  0
 22 55  1  0  0  0  0
 23 25  1  0  0  0  0
 24 56  1  0  0  0  0
 24 57  1  0  0  0  0
 25 58  1  0  0  0  0
 26 27  1  0  0  0  0
 27 29  2  0  0  0  0
 27 30  1  0  0  0  0
 29 32  1  0  0  0  0
 29 60  1  0  0  0  0
 30 33  2  0  0  0  0
 30 61  1  0  0  0  0
 31 32  2  0  0  0  0
 31 33  1  0  0  0  0
 31 34  1  0  0  0  0
 32 62  1  0  0  0  0
 33 63  1  0  0  0  0
 34 35  2  0  0  0  0
 34 36  1  0  0  0  0
 35 38  1  0  0  0  0
 35 64  1  0  0  0  0
 36 39  2  0  0  0  0
 36 65  1  0  0  0  0
 37 38  2  0  0  0  0
 37 39  1  0  0  0  0
 37 40  1  0  0  0  0
 38 66  1  0  0  0  0
 39 67  1  0  0  0  0
 41 69  1  0  0  0  0
 41 70  1  0  0  0  0
 41 71  1  0  0  0  0
M  END
> <PUBCHEM_COMPOUND_CID>
17895586

> <PUBCHEM_COMPOUND_CANONICALIZED>
1

> <PUBCHEM_CACTVS_COMPLEXITY>
973

> <PUBCHEM_CACTVS_HBOND_ACCEPTOR>
9

> <PUBCHEM_CACTVS_HBOND_DONOR>
2

> <PUBCHEM_CACTVS_ROTATABLE_BOND>
10

> <PUBCHEM_CACTVS_SUBSKEYS>
AAADceB7OYBAAAAAAAAAAAAAAAAAAAAAAAA8YMEAAAAAAACxUAAAHwQQAAAADATBmBQyBoPAAAKIAiFSEHCCAAAkIAAIiIEODMgIJjKAlROEMQhk1hGIiYe4yNCO4AABAAAQAADAAAIAACAAAAAAAAAAAA==

> <PUBCHEM_IUPAC_OPENEYE_NAME>
[2-[4-[[4-[4-(methylcarbamoyl)phenyl]benzoyl]amino]butyl]-3,4-dihydro-1H-isoquinolin-7-yl] trifluoromethanesulfonate

> <PUBCHEM_IUPAC_CAS_NAME>
trifluoromethanesulfonic acid [2-[4-[[[4-[4-(methylcarbamoyl)phenyl]phenyl]-oxomethyl]amino]butyl]-3,4-dihydro-1H-isoquinolin-7-yl] ester

> <PUBCHEM_IUPAC_NAME_MARKUP>
[2-[4-[[4-[4-(methylcarbamoyl)phenyl]benzoyl]amino]butyl]-3,4-dihydro-1<I>H</I>-isoquinolin-7-yl] trifluoromethanesulfonate

> <PUBCHEM_IUPAC_NAME>
[2-[4-[[4-[4-(methylcarbamoyl)phenyl]benzoyl]amino]butyl]-3,4-dihydro-1H-isoquinolin-7-yl] trifluoromethanesulfonate

> <PUBCHEM_IUPAC_SYSTEMATIC_NAME>
[2-[4-[[4-[4-(methylcarbamoyl)phenyl]phenyl]carbonylamino]butyl]-3,4-dihydro-1H-isoquinolin-7-yl] tris(fluoranyl)methanesulfonate

> <PUBCHEM_IUPAC_TRADITIONAL_NAME>
trifluoromethanesulfonic acid [2-[4-[[4-[4-(methylcarbamoyl)phenyl]benzoyl]amino]butyl]-3,4-dihydro-1H-isoquinolin-7-yl] ester

> <PUBCHEM_IUPAC_INCHI>
InChI=1S/C29H30F3N3O5S/c1-33-27(36)23-8-4-20(5-9-23)21-6-10-24(11-7-21)28(37)34-15-2-3-16-35-17-14-22-12-13-26(18-25(22)19-35)40-41(38,39)29(30,31)32/h4-13,18H,2-3,14-17,19H2,1H3,(H,33,36)(H,34,37)

> <PUBCHEM_IUPAC_INCHIKEY>
AUFOWYXFFKBIDT-UHFFFAOYSA-N

> <PUBCHEM_XLOGP3_AA>
5.1

> <PUBCHEM_EXACT_MASS>
589.18582673

> <PUBCHEM_MOLECULAR_FORMULA>
C29H30F3N3O5S

> <PUBCHEM_MOLECULAR_WEIGHT>
589.6

> <PUBCHEM_OPENEYE_CAN_SMILES>
CNC(=O)C1=CC=C(C=C1)C2=CC=C(C=C2)C(=O)NCCCCN3CCC4=C(C3)C=C(C=C4)OS(=O)(=O)C(F)(F)F

> <PUBCHEM_OPENEYE_ISO_SMILES>
CNC(=O)C1=CC=C(C=C1)C2=CC=C(C=C2)C(=O)NCCCCN3CCC4=C(C3)C=C(C=C4)OS(=O)(=O)C(F)(F)F

> <PUBCHEM_CACTVS_TPSA>
113

> <PUBCHEM_MONOISOTOPIC_WEIGHT>
589.18582673

> <PUBCHEM_TOTAL_CHARGE>
0

> <PUBCHEM_HEAVY_ATOM_COUNT>
41

> <PUBCHEM_ATOM_DEF_STEREO_COUNT>
0

> <PUBCHEM_ATOM_UDEF_STEREO_COUNT>
0

> <PUBCHEM_BOND_DEF_STEREO_COUNT>
0

> <PUBCHEM_BOND_UDEF_STEREO_COUNT>
0

> <PUBCHEM_ISOTOPIC_ATOM_COUNT>
0

> <PUBCHEM_COMPONENT_COUNT>
1

> <PUBCHEM_CACTVS_TAUTO_COUNT>
-1

> <PUBCHEM_COORDINATE_TYPE>
1
5
255

> <PUBCHEM_BONDANNOTATIONS>
17  18  8
17  21  8
18  22  8
21  23  8
22  25  8
23  25  8
27  29  8
27  30  8
29  32  8
30  33  8
31  32  8
31  33  8
34  35  8
34  36  8
35  38  8
36  39  8
37  38  8
37  39  8

$$$$
