145991244
  -OEChem-09292322062D

 58 62  0     1  0  0  0  0  0999 V2000
    7.3044   -5.7574    0.0000 S   0  0  0  0  0  0  0  0  0  0  0  0
    5.5202    3.3261    0.0000 O   0  0  0  0  0  0  0  0  0  0  0  0
    2.0000    3.3261    0.0000 O   0  0  0  0  0  0  0  0  0  0  0  0
    3.7601    3.0473    0.0000 N   0  0  0  0  0  0  0  0  0  0  0  0
    5.4921   -0.9527    0.0000 N   0  0  0  0  0  0  0  0  0  0  0  0
    5.4921   -2.9527    0.0000 N   0  0  0  0  0  0  0  0  0  0  0  0
    3.7601    5.4527    0.0000 C   0  0  0  0  0  0  0  0  0  0  0  0
    3.2601    4.5862    0.0000 C   0  0  3  0  0  0  0  0  0  0  0  0
    4.2601    4.5862    0.0000 C   0  0  3  0  0  0  0  0  0  0  0  0
    4.5691    3.6351    0.0000 C   0  0  0  0  0  0  0  0  0  0  0  0
    2.9511    3.6351    0.0000 C   0  0  0  0  0  0  0  0  0  0  0  0
    2.8940    5.9527    0.0000 C   0  0  0  0  0  0  0  0  0  0  0  0
    4.6261    5.9527    0.0000 C   0  0  0  0  0  0  0  0  0  0  0  0
    3.7601    2.0473    0.0000 C   0  0  0  0  0  0  0  0  0  0  0  0
    4.6261    1.5473    0.0000 C   0  0  0  0  0  0  0  0  0  0  0  0
    4.6261    0.5473    0.0000 C   0  0  0  0  0  0  0  0  0  0  0  0
    5.4921    0.0473    0.0000 C   0  0  0  0  0  0  0  0  0  0  0  0
    6.3582   -1.4527    0.0000 C   0  0  0  0  0  0  0  0  0  0  0  0
    4.6261   -1.4527    0.0000 C   0  0  0  0  0  0  0  0  0  0  0  0
    6.3582   -2.4527    0.0000 C   0  0  0  0  0  0  0  0  0  0  0  0
    4.6261   -2.4527    0.0000 C   0  0  0  0  0  0  0  0  0  0  0  0
    5.4921   -3.9527    0.0000 C   0  0  0  0  0  0  0  0  0  0  0  0
    6.3582   -4.4527    0.0000 C   0  0  0  0  0  0  0  0  0  0  0  0
    4.6261   -4.4527    0.0000 C   0  0  0  0  0  0  0  0  0  0  0  0
    6.3582   -5.4527    0.0000 C   0  0  0  0  0  0  0  0  0  0  0  0
    7.3044   -4.1480    0.0000 C   0  0  0  0  0  0  0  0  0  0  0  0
    4.6261   -5.4527    0.0000 C   0  0  0  0  0  0  0  0  0  0  0  0
    5.4921   -5.9527    0.0000 C   0  0  0  0  0  0  0  0  0  0  0  0
    7.8880   -4.9527    0.0000 C   0  0  0  0  0  0  0  0  0  0  0  0
    2.6936    4.8383    0.0000 H   0  0  0  0  0  0  0  0  0  0  0  0
    4.8265    4.8383    0.0000 H   0  0  0  0  0  0  0  0  0  0  0  0
    3.2040    6.4896    0.0000 H   0  0  0  0  0  0  0  0  0  0  0  0
    2.3571    6.2627    0.0000 H   0  0  0  0  0  0  0  0  0  0  0  0
    2.5840    5.4158    0.0000 H   0  0  0  0  0  0  0  0  0  0  0  0
    4.9361    5.4158    0.0000 H   0  0  0  0  0  0  0  0  0  0  0  0
    5.1630    6.2627    0.0000 H   0  0  0  0  0  0  0  0  0  0  0  0
    4.3161    6.4896    0.0000 H   0  0  0  0  0  0  0  0  0  0  0  0
    3.1495    2.1550    0.0000 H   0  0  0  0  0  0  0  0  0  0  0  0
    3.5480    1.4647    0.0000 H   0  0  0  0  0  0  0  0  0  0  0  0
    5.2367    1.4397    0.0000 H   0  0  0  0  0  0  0  0  0  0  0  0
    4.8382    2.1299    0.0000 H   0  0  0  0  0  0  0  0  0  0  0  0
    4.0155    0.6550    0.0000 H   0  0  0  0  0  0  0  0  0  0  0  0
    4.4140   -0.0353    0.0000 H   0  0  0  0  0  0  0  0  0  0  0  0
    6.1027   -0.0604    0.0000 H   0  0  0  0  0  0  0  0  0  0  0  0
    5.7042    0.6299    0.0000 H   0  0  0  0  0  0  0  0  0  0  0  0
    6.9687   -1.5603    0.0000 H   0  0  0  0  0  0  0  0  0  0  0  0
    6.5702   -0.8701    0.0000 H   0  0  0  0  0  0  0  0  0  0  0  0
    4.4140   -0.8701    0.0000 H   0  0  0  0  0  0  0  0  0  0  0  0
    4.0155   -1.5603    0.0000 H   0  0  0  0  0  0  0  0  0  0  0  0
    6.5702   -3.0353    0.0000 H   0  0  0  0  0  0  0  0  0  0  0  0
    6.9687   -2.3450    0.0000 H   0  0  0  0  0  0  0  0  0  0  0  0
    4.0155   -2.3450    0.0000 H   0  0  0  0  0  0  0  0  0  0  0  0
    4.4140   -3.0353    0.0000 H   0  0  0  0  0  0  0  0  0  0  0  0
    4.0892   -4.1427    0.0000 H   0  0  0  0  0  0  0  0  0  0  0  0
    7.4970   -3.5586    0.0000 H   0  0  0  0  0  0  0  0  0  0  0  0
    4.0892   -5.7627    0.0000 H   0  0  0  0  0  0  0  0  0  0  0  0
    5.4921   -6.5727    0.0000 H   0  0  0  0  0  0  0  0  0  0  0  0
    8.5080   -4.9527    0.0000 H   0  0  0  0  0  0  0  0  0  0  0  0
  1 25  1  0  0  0  0
  1 29  1  0  0  0  0
  2 10  2  0  0  0  0
  3 11  2  0  0  0  0
  4 10  1  0  0  0  0
  4 11  1  0  0  0  0
  4 14  1  0  0  0  0
  5 17  1  0  0  0  0
  5 18  1  0  0  0  0
  5 19  1  0  0  0  0
  6 20  1  0  0  0  0
  6 21  1  0  0  0  0
  6 22  1  0  0  0  0
  7  8  1  0  0  0  0
  7  9  1  0  0  0  0
  7 12  1  0  0  0  0
  7 13  1  0  0  0  0
  8  9  1  0  0  0  0
  8 11  1  0  0  0  0
  8 30  1  0  0  0  0
  9 10  1  0  0  0  0
  9 31  1  0  0  0  0
 12 32  1  0  0  0  0
 12 33  1  0  0  0  0
 12 34  1  0  0  0  0
 13 35  1  0  0  0  0
 13 36  1  0  0  0  0
 13 37  1  0  0  0  0
 14 15  1  0  0  0  0
 14 38  1  0  0  0  0
 14 39  1  0  0  0  0
 15 16  1  0  0  0  0
 15 40  1  0  0  0  0
 15 41  1  0  0  0  0
 16 17  1  0  0  0  0
 16 42  1  0  0  0  0
 16 43  1  0  0  0  0
 17 44  1  0  0  0  0
 17 45  1  0  0  0  0
 18 20  1  0  0  0  0
 18 46  1  0  0  0  0
 18 47  1  0  0  0  0
 19 21  1  0  0  0  0
 19 48  1  0  0  0  0
 19 49  1  0  0  0  0
 20 50  1  0  0  0  0
 20 51  1  0  0  0  0
 21 52  1  0  0  0  0
 21 53  1  0  0  0  0
 22 23  2  0  0  0  0
 22 24  1  0  0  0  0
 23 25  1  0  0  0  0
 23 26  1  0  0  0  0
 24 27  2  0  0  0  0
 24 54  1  0  0  0  0
 25 28  2  0  0  0  0
 26 29  2  0  0  0  0
 26 55  1  0  0  0  0
 27 28  1  0  0  0  0
 27 56  1  0  0  0  0
 28 57  1  0  0  0  0
 29 58  1  0  0  0  0
M  END
> <PUBCHEM_COMPOUND_CID>
145991244

> <PUBCHEM_COMPOUND_CANONICALIZED>
1

> <PUBCHEM_CACTVS_COMPLEXITY>
637

> <PUBCHEM_CACTVS_HBOND_ACCEPTOR>
5

> <PUBCHEM_CACTVS_HBOND_DONOR>
0

> <PUBCHEM_CACTVS_ROTATABLE_BOND>
6

> <PUBCHEM_CACTVS_SUBSKEYS>
AAADceB7MABAAAAAAAAAAAAAGAAAAWJAAAA8WIAAAAAAAEgB8AAAHgQAAAAADwjF2ASywcMAAAiMAiVSUACDAIAhChBIiBkIZIgIYDLgkZGUIAxghiDoyAcdg4APgAAAACAGAAAAAAAAQAwAAAAAAAAAAA==

> <PUBCHEM_IUPAC_OPENEYE_NAME>
3-[4-[4-(benzothiophen-4-yl)piperazin-1-yl]butyl]-6,6-dimethyl-3-azabicyclo[3.1.0]hexane-2,4-dione

> <PUBCHEM_IUPAC_CAS_NAME>
3-[4-[4-(1-benzothiophen-4-yl)-1-piperazinyl]butyl]-6,6-dimethyl-3-azabicyclo[3.1.0]hexane-2,4-dione

> <PUBCHEM_IUPAC_NAME_MARKUP>
3-[4-[4-(1-benzothiophen-4-yl)piperazin-1-yl]butyl]-6,6-dimethyl-3-azabicyclo[3.1.0]hexane-2,4-dione

> <PUBCHEM_IUPAC_NAME>
3-[4-[4-(1-benzothiophen-4-yl)piperazin-1-yl]butyl]-6,6-dimethyl-3-azabicyclo[3.1.0]hexane-2,4-dione

> <PUBCHEM_IUPAC_SYSTEMATIC_NAME>
3-[4-[4-(1-benzothiophen-4-yl)piperazin-1-yl]butyl]-6,6-dimethyl-3-azabicyclo[3.1.0]hexane-2,4-dione

> <PUBCHEM_IUPAC_TRADITIONAL_NAME>
3-[4-[4-(benzothiophen-4-yl)piperazino]butyl]-6,6-dimethyl-3-azabicyclo[3.1.0]hexane-2,4-quinone

> <PUBCHEM_IUPAC_INCHI>
InChI=1S/C23H29N3O2S/c1-23(2)19-20(23)22(28)26(21(19)27)10-4-3-9-24-11-13-25(14-12-24)17-6-5-7-18-16(17)8-15-29-18/h5-8,15,19-20H,3-4,9-14H2,1-2H3

> <PUBCHEM_IUPAC_INCHIKEY>
ODOYBDHNDVPBSP-UHFFFAOYSA-N

> <PUBCHEM_XLOGP3_AA>
3.5

> <PUBCHEM_EXACT_MASS>
411.19804835

> <PUBCHEM_MOLECULAR_FORMULA>
C23H29N3O2S

> <PUBCHEM_MOLECULAR_WEIGHT>
411.6

> <PUBCHEM_OPENEYE_CAN_SMILES>
CC1(C2C1C(=O)N(C2=O)CCCCN3CCN(CC3)C4=C5C=CSC5=CC=C4)C

> <PUBCHEM_OPENEYE_ISO_SMILES>
CC1(C2C1C(=O)N(C2=O)CCCCN3CCN(CC3)C4=C5C=CSC5=CC=C4)C

> <PUBCHEM_CACTVS_TPSA>
72.1

> <PUBCHEM_MONOISOTOPIC_WEIGHT>
411.19804835

> <PUBCHEM_TOTAL_CHARGE>
0

> <PUBCHEM_HEAVY_ATOM_COUNT>
29

> <PUBCHEM_ATOM_DEF_STEREO_COUNT>
0

> <PUBCHEM_ATOM_UDEF_STEREO_COUNT>
2

> <PUBCHEM_BOND_DEF_STEREO_COUNT>
0

> <PUBCHEM_BOND_UDEF_STEREO_COUNT>
0

> <PUBCHEM_ISOTOPIC_ATOM_COUNT>
0

> <PUBCHEM_COMPONENT_COUNT>
1

> <PUBCHEM_CACTVS_TAUTO_COUNT>
-1

> <PUBCHEM_COORDINATE_TYPE>
1
5
255

> <PUBCHEM_BONDANNOTATIONS>
1  25  8
1  29  8
22  23  8
22  24  8
23  25  8
23  26  8
24  27  8
25  28  8
26  29  8
27  28  8
8  7  3
9  10  3

$$$$
