10831735
  -OEChem-09292322102D

 44 47  0     0  0  0  0  0  0999 V2000
   11.4939    3.7281    0.0000 Cl  0  0  0  0  0  0  0  0  0  0  0  0
    8.4939   -1.4680    0.0000 N   0  0  0  0  0  0  0  0  0  0  0  0
    9.4939    0.2640    0.0000 N   0  0  0  0  0  0  0  0  0  0  0  0
    6.4103   -3.1388    0.0000 N   0  0  0  0  0  0  0  0  0  0  0  0
    2.0000   -0.8341    0.0000 N   0  0  0  0  0  0  0  0  0  0  0  0
    7.9939   -0.6020    0.0000 C   0  0  0  0  0  0  0  0  0  0  0  0
    9.4939   -1.4680    0.0000 C   0  0  0  0  0  0  0  0  0  0  0  0
    8.4939    0.2640    0.0000 C   0  0  0  0  0  0  0  0  0  0  0  0
    9.9939   -0.6020    0.0000 C   0  0  0  0  0  0  0  0  0  0  0  0
    7.9939   -2.3341    0.0000 C   0  0  0  0  0  0  0  0  0  0  0  0
    6.9939   -2.3341    0.0000 C   0  0  0  0  0  0  0  0  0  0  0  0
    9.9939    1.1300    0.0000 C   0  0  0  0  0  0  0  0  0  0  0  0
    6.4103   -1.5293    0.0000 C   0  0  0  0  0  0  0  0  0  0  0  0
    5.4641   -1.8341    0.0000 C   0  0  0  0  0  0  0  0  0  0  0  0
    5.4641   -2.8341    0.0000 C   0  0  0  0  0  0  0  0  0  0  0  0
   10.9939    1.1300    0.0000 C   0  0  0  0  0  0  0  0  0  0  0  0
    9.4939    1.9961    0.0000 C   0  0  0  0  0  0  0  0  0  0  0  0
    4.5981   -1.3341    0.0000 C   0  0  0  0  0  0  0  0  0  0  0  0
    4.5981   -3.3341    0.0000 C   0  0  0  0  0  0  0  0  0  0  0  0
   11.4939    1.9961    0.0000 C   0  0  0  0  0  0  0  0  0  0  0  0
    9.9939    2.8621    0.0000 C   0  0  0  0  0  0  0  0  0  0  0  0
    3.7320   -1.8341    0.0000 C   0  0  0  0  0  0  0  0  0  0  0  0
    3.7320   -2.8341    0.0000 C   0  0  0  0  0  0  0  0  0  0  0  0
   10.9939    2.8621    0.0000 C   0  0  0  0  0  0  0  0  0  0  0  0
    2.8660   -1.3341    0.0000 C   0  0  0  0  0  0  0  0  0  0  0  0
    7.5190   -0.2035    0.0000 H   0  0  0  0  0  0  0  0  0  0  0  0
    7.5190   -1.0005    0.0000 H   0  0  0  0  0  0  0  0  0  0  0  0
    9.3863   -2.0786    0.0000 H   0  0  0  0  0  0  0  0  0  0  0  0
   10.0765   -1.6801    0.0000 H   0  0  0  0  0  0  0  0  0  0  0  0
    8.6016    0.8746    0.0000 H   0  0  0  0  0  0  0  0  0  0  0  0
    7.9113    0.4761    0.0000 H   0  0  0  0  0  0  0  0  0  0  0  0
   10.4689   -1.0005    0.0000 H   0  0  0  0  0  0  0  0  0  0  0  0
   10.4689   -0.2035    0.0000 H   0  0  0  0  0  0  0  0  0  0  0  0
    7.8863   -2.9446    0.0000 H   0  0  0  0  0  0  0  0  0  0  0  0
    8.5765   -2.5461    0.0000 H   0  0  0  0  0  0  0  0  0  0  0  0
    6.6029   -0.9400    0.0000 H   0  0  0  0  0  0  0  0  0  0  0  0
    6.6029   -3.7281    0.0000 H   0  0  0  0  0  0  0  0  0  0  0  0
   11.3039    0.5931    0.0000 H   0  0  0  0  0  0  0  0  0  0  0  0
    8.8739    1.9961    0.0000 H   0  0  0  0  0  0  0  0  0  0  0  0
    4.5981   -0.7141    0.0000 H   0  0  0  0  0  0  0  0  0  0  0  0
    4.5981   -3.9541    0.0000 H   0  0  0  0  0  0  0  0  0  0  0  0
   12.1139    1.9961    0.0000 H   0  0  0  0  0  0  0  0  0  0  0  0
    9.6839    3.3990    0.0000 H   0  0  0  0  0  0  0  0  0  0  0  0
    3.1951   -3.1441    0.0000 H   0  0  0  0  0  0  0  0  0  0  0  0
  1 24  1  0  0  0  0
  2  6  1  0  0  0  0
  2  7  1  0  0  0  0
  2 10  1  0  0  0  0
  3  8  1  0  0  0  0
  3  9  1  0  0  0  0
  3 12  1  0  0  0  0
  4 11  1  0  0  0  0
  4 15  1  0  0  0  0
  4 37  1  0  0  0  0
  5 25  3  0  0  0  0
  6  8  1  0  0  0  0
  6 26  1  0  0  0  0
  6 27  1  0  0  0  0
  7  9  1  0  0  0  0
  7 28  1  0  0  0  0
  7 29  1  0  0  0  0
  8 30  1  0  0  0  0
  8 31  1  0  0  0  0
  9 32  1  0  0  0  0
  9 33  1  0  0  0  0
 10 11  1  0  0  0  0
 10 34  1  0  0  0  0
 10 35  1  0  0  0  0
 11 13  2  0  0  0  0
 12 16  2  0  0  0  0
 12 17  1  0  0  0  0
 13 14  1  0  0  0  0
 13 36  1  0  0  0  0
 14 15  2  0  0  0  0
 14 18  1  0  0  0  0
 15 19  1  0  0  0  0
 16 20  1  0  0  0  0
 16 38  1  0  0  0  0
 17 21  2  0  0  0  0
 17 39  1  0  0  0  0
 18 22  2  0  0  0  0
 18 40  1  0  0  0  0
 19 23  2  0  0  0  0
 19 41  1  0  0  0  0
 20 24  2  0  0  0  0
 20 42  1  0  0  0  0
 21 24  1  0  0  0  0
 21 43  1  0  0  0  0
 22 23  1  0  0  0  0
 22 25  1  0  0  0  0
 23 44  1  0  0  0  0
M  END
> <PUBCHEM_COMPOUND_CID>
10831735

> <PUBCHEM_COMPOUND_CANONICALIZED>
1

> <PUBCHEM_CACTVS_COMPLEXITY>
487

> <PUBCHEM_CACTVS_HBOND_ACCEPTOR>
3

> <PUBCHEM_CACTVS_HBOND_DONOR>
1

> <PUBCHEM_CACTVS_ROTATABLE_BOND>
3

> <PUBCHEM_CACTVS_SUBSKEYS>
AAADceB7gAAEAAAAAAAAAAAAAAAAAWAAAAA8YIAAAAAAAFgB9AAAHAIQAAAADArBHiQwwPPJkACwByRiRACigCAhByAImSA4ZpgI4OLBk5GUIAhgkADIyA8QgMAOCABCAAACAAAQAIQAAAQAAAAAAAAAAA==

> <PUBCHEM_IUPAC_OPENEYE_NAME>
2-[[4-(4-chlorophenyl)piperazin-1-yl]methyl]-1H-indole-5-carbonitrile

> <PUBCHEM_IUPAC_CAS_NAME>
2-[[4-(4-chlorophenyl)-1-piperazinyl]methyl]-1H-indole-5-carbonitrile

> <PUBCHEM_IUPAC_NAME_MARKUP>
2-[[4-(4-chlorophenyl)piperazin-1-yl]methyl]-1<I>H</I>-indole-5-carbonitrile

> <PUBCHEM_IUPAC_NAME>
2-[[4-(4-chlorophenyl)piperazin-1-yl]methyl]-1H-indole-5-carbonitrile

> <PUBCHEM_IUPAC_SYSTEMATIC_NAME>
2-[[4-(4-chlorophenyl)piperazin-1-yl]methyl]-1H-indole-5-carbonitrile

> <PUBCHEM_IUPAC_TRADITIONAL_NAME>
2-[[4-(4-chlorophenyl)piperazino]methyl]-1H-indole-5-carbonitrile

> <PUBCHEM_IUPAC_INCHI>
InChI=1S/C20H19ClN4/c21-17-2-4-19(5-3-17)25-9-7-24(8-10-25)14-18-12-16-11-15(13-22)1-6-20(16)23-18/h1-6,11-12,23H,7-10,14H2

> <PUBCHEM_IUPAC_INCHIKEY>
WOELKTNFFNSJSS-UHFFFAOYSA-N

> <PUBCHEM_XLOGP3_AA>
3.9

> <PUBCHEM_EXACT_MASS>
350.1298243

> <PUBCHEM_MOLECULAR_FORMULA>
C20H19ClN4

> <PUBCHEM_MOLECULAR_WEIGHT>
350.8

> <PUBCHEM_OPENEYE_CAN_SMILES>
C1CN(CCN1CC2=CC3=C(N2)C=CC(=C3)C#N)C4=CC=C(C=C4)Cl

> <PUBCHEM_OPENEYE_ISO_SMILES>
C1CN(CCN1CC2=CC3=C(N2)C=CC(=C3)C#N)C4=CC=C(C=C4)Cl

> <PUBCHEM_CACTVS_TPSA>
46.1

> <PUBCHEM_MONOISOTOPIC_WEIGHT>
350.1298243

> <PUBCHEM_TOTAL_CHARGE>
0

> <PUBCHEM_HEAVY_ATOM_COUNT>
25

> <PUBCHEM_ATOM_DEF_STEREO_COUNT>
0

> <PUBCHEM_ATOM_UDEF_STEREO_COUNT>
0

> <PUBCHEM_BOND_DEF_STEREO_COUNT>
0

> <PUBCHEM_BOND_UDEF_STEREO_COUNT>
0

> <PUBCHEM_ISOTOPIC_ATOM_COUNT>
0

> <PUBCHEM_COMPONENT_COUNT>
1

> <PUBCHEM_CACTVS_TAUTO_COUNT>
-1

> <PUBCHEM_COORDINATE_TYPE>
1
5
255

> <PUBCHEM_BONDANNOTATIONS>
11  13  8
12  16  8
12  17  8
13  14  8
14  15  8
14  18  8
15  19  8
16  20  8
17  21  8
18  22  8
19  23  8
20  24  8
21  24  8
22  23  8
4  11  8
4  15  8

$$$$
