11522339
  -OEChem-09292322272D

 41 43  0     1  0  0  0  0  0999 V2000
    4.6719   -2.2058    0.0000 O   0  0  0  0  0  0  0  0  0  0  0  0
    3.7841    2.3257    0.0000 N   0  0  3  0  0  0  0  0  0  0  0  0
    3.7841    1.3257    0.0000 C   0  0  0  0  0  0  0  0  0  0  0  0
    4.6501    2.8257    0.0000 C   0  0  0  0  0  0  0  0  0  0  0  0
    2.9180    0.8257    0.0000 C   0  0  0  0  0  0  0  0  0  0  0  0
    5.5161    2.3257    0.0000 C   0  0  0  0  0  0  0  0  0  0  0  0
    2.9180   -0.1743    0.0000 C   0  0  0  0  0  0  0  0  0  0  0  0
    4.6501   -0.1743    0.0000 C   0  0  0  0  0  0  0  0  0  0  0  0
    3.7841   -0.6743    0.0000 C   0  0  0  0  0  0  0  0  0  0  0  0
    5.5161    1.3257    0.0000 C   0  0  0  0  0  0  0  0  0  0  0  0
    4.6501    0.8257    0.0000 C   0  0  0  0  0  0  0  0  0  0  0  0
    2.9180    2.8257    0.0000 C   0  0  0  0  0  0  0  0  0  0  0  0
    3.8001   -1.7158    0.0000 C   0  0  0  0  0  0  0  0  0  0  0  0
    2.0080   -0.6811    0.0000 C   0  0  0  0  0  0  0  0  0  0  0  0
    6.9274    0.7486    0.0000 C   0  0  0  0  0  0  0  0  0  0  0  0
    4.4442   -0.6851    0.0000 C   0  0  0  0  0  0  0  0  0  0  0  0
    2.9021   -2.2436    0.0000 C   0  0  0  0  0  0  0  0  0  0  0  0
    2.0000   -1.7227    0.0000 C   0  0  0  0  0  0  0  0  0  0  0  0
    7.0306   -0.7727    0.0000 C   0  0  0  0  0  0  0  0  0  0  0  0
    5.7101   -1.5351    0.0000 C   0  0  0  0  0  0  0  0  0  0  0  0
    3.9961    0.7431    0.0000 H   0  0  0  0  0  0  0  0  0  0  0  0
    4.3946    1.4334    0.0000 H   0  0  0  0  0  0  0  0  0  0  0  0
    5.0486    3.3007    0.0000 H   0  0  0  0  0  0  0  0  0  0  0  0
    4.2516    3.3007    0.0000 H   0  0  0  0  0  0  0  0  0  0  0  0
    2.7060    1.4083    0.0000 H   0  0  0  0  0  0  0  0  0  0  0  0
    2.3074    0.7180    0.0000 H   0  0  0  0  0  0  0  0  0  0  0  0
    6.1267    2.2180    0.0000 H   0  0  0  0  0  0  0  0  0  0  0  0
    5.7282    2.9083    0.0000 H   0  0  0  0  0  0  0  0  0  0  0  0
    4.8621   -0.7569    0.0000 H   0  0  0  0  0  0  0  0  0  0  0  0
    5.2607   -0.0666    0.0000 H   0  0  0  0  0  0  0  0  0  0  0  0
    3.2280    3.3626    0.0000 H   0  0  0  0  0  0  0  0  0  0  0  0
    2.3811    3.1357    0.0000 H   0  0  0  0  0  0  0  0  0  0  0  0
    2.6080    2.2888    0.0000 H   0  0  0  0  0  0  0  0  0  0  0  0
    1.4747   -0.3649    0.0000 H   0  0  0  0  0  0  0  0  0  0  0  0
    7.4302    1.1114    0.0000 H   0  0  0  0  0  0  0  0  0  0  0  0
    3.8786   -0.9390    0.0000 H   0  0  0  0  0  0  0  0  0  0  0  0
    2.9045   -2.8636    0.0000 H   0  0  0  0  0  0  0  0  0  0  0  0
    1.4619   -2.0307    0.0000 H   0  0  0  0  0  0  0  0  0  0  0  0
    7.5777   -1.0643    0.0000 H   0  0  0  0  0  0  0  0  0  0  0  0
    5.6891   -2.1547    0.0000 H   0  0  0  0  0  0  0  0  0  0  0  0
    4.6790   -2.8257    0.0000 H   0  0  0  0  0  0  0  0  0  0  0  0
  1 13  1  0  0  0  0
  1 41  1  0  0  0  0
  2  3  1  0  0  0  0
  2  4  1  0  0  0  0
  2 12  1  0  0  0  0
  3  5  1  0  0  0  0
  3 21  1  0  0  0  0
  3 22  1  0  0  0  0
  4  6  1  0  0  0  0
  4 23  1  0  0  0  0
  4 24  1  0  0  0  0
  5  7  1  0  0  0  0
  5 25  1  0  0  0  0
  5 26  1  0  0  0  0
  6 10  1  0  0  0  0
  6 27  1  0  0  0  0
  6 28  1  0  0  0  0
  7  9  2  0  0  0  0
  7 14  1  0  0  0  0
  8  9  1  0  0  0  0
  8 11  1  0  0  0  0
  8 29  1  0  0  0  0
  8 30  1  0  0  0  0
  9 13  1  0  0  0  0
 10 11  1  0  0  0  0
 10 15  2  0  0  0  0
 11 16  2  0  0  0  0
 12 31  1  0  0  0  0
 12 32  1  0  0  0  0
 12 33  1  0  0  0  0
 13 17  2  0  0  0  0
 14 18  2  0  0  0  0
 14 34  1  0  0  0  0
 15 19  1  0  0  0  0
 15 35  1  0  0  0  0
 16 20  1  0  0  0  0
 16 36  1  0  0  0  0
 17 18  1  0  0  0  0
 17 37  1  0  0  0  0
 18 38  1  0  0  0  0
 19 20  2  0  0  0  0
 19 39  1  0  0  0  0
 20 40  1  0  0  0  0
M  END
> <PUBCHEM_COMPOUND_CID>
11522339

> <PUBCHEM_COMPOUND_CANONICALIZED>
1

> <PUBCHEM_CACTVS_COMPLEXITY>
306

> <PUBCHEM_CACTVS_HBOND_ACCEPTOR>
2

> <PUBCHEM_CACTVS_HBOND_DONOR>
1

> <PUBCHEM_CACTVS_ROTATABLE_BOND>
0

> <PUBCHEM_CACTVS_SUBSKEYS>
AAADceB6IAAAAAAAAAAAAAAAAAAAAAAAAAAwYAAAAAAAAACxQAAAHgAACAAADATBmAQyBoMAAgCAAiBCAAACAAAgIAAIiAAOCIgIJiKCkROEcAAkwBGImAeQ0PIOgAABAAAYAAAAAAIAADAAAAAAAAAAAA==

> <PUBCHEM_IUPAC_OPENEYE_NAME>
11-methyl-11-azatricyclo[12.4.0.03,8]octadeca-1(18),3(8),4,6,14,16-hexaen-4-ol

> <PUBCHEM_IUPAC_CAS_NAME>
11-methyl-11-azatricyclo[12.4.0.03,8]octadeca-1(18),3(8),4,6,14,16-hexaen-4-ol

> <PUBCHEM_IUPAC_NAME_MARKUP>
11-methyl-11-azatricyclo[12.4.0.0<SUP>3,8</SUP>]octadeca-1(18),3(8),4,6,14,16-hexaen-4-ol

> <PUBCHEM_IUPAC_NAME>
11-methyl-11-azatricyclo[12.4.0.03,8]octadeca-1(18),3(8),4,6,14,16-hexaen-4-ol

> <PUBCHEM_IUPAC_SYSTEMATIC_NAME>
11-methyl-11-azatricyclo[12.4.0.03,8]octadeca-1(18),3(8),4,6,14,16-hexaen-4-ol

> <PUBCHEM_IUPAC_TRADITIONAL_NAME>
11-methyl-11-azatricyclo[12.4.0.03,8]octadeca-1(18),3(8),4,6,14,16-hexaen-4-ol

> <PUBCHEM_IUPAC_INCHI>
InChI=1S/C18H21NO/c1-19-11-9-14-5-2-3-6-16(14)13-17-15(10-12-19)7-4-8-18(17)20/h2-8,20H,9-13H2,1H3

> <PUBCHEM_IUPAC_INCHIKEY>
YAOWMUKUYWGVDH-UHFFFAOYSA-N

> <PUBCHEM_XLOGP3_AA>
3.8

> <PUBCHEM_EXACT_MASS>
267.162314293

> <PUBCHEM_MOLECULAR_FORMULA>
C18H21NO

> <PUBCHEM_MOLECULAR_WEIGHT>
267.4

> <PUBCHEM_OPENEYE_CAN_SMILES>
CN1CCC2=C(CC3=CC=CC=C3CC1)C(=CC=C2)O

> <PUBCHEM_OPENEYE_ISO_SMILES>
CN1CCC2=C(CC3=CC=CC=C3CC1)C(=CC=C2)O

> <PUBCHEM_CACTVS_TPSA>
23.5

> <PUBCHEM_MONOISOTOPIC_WEIGHT>
267.162314293

> <PUBCHEM_TOTAL_CHARGE>
0

> <PUBCHEM_HEAVY_ATOM_COUNT>
20

> <PUBCHEM_ATOM_DEF_STEREO_COUNT>
0

> <PUBCHEM_ATOM_UDEF_STEREO_COUNT>
0

> <PUBCHEM_BOND_DEF_STEREO_COUNT>
0

> <PUBCHEM_BOND_UDEF_STEREO_COUNT>
0

> <PUBCHEM_ISOTOPIC_ATOM_COUNT>
0

> <PUBCHEM_COMPONENT_COUNT>
1

> <PUBCHEM_CACTVS_TAUTO_COUNT>
-1

> <PUBCHEM_COORDINATE_TYPE>
1
5
255

> <PUBCHEM_BONDANNOTATIONS>
10  11  8
10  15  8
11  16  8
13  17  8
14  18  8
15  19  8
16  20  8
17  18  8
19  20  8
7  14  8
7  9  8
9  13  8

$$$$
